 Entering Gaussian System, Link 0=C:\G09W\g09.exe
 Input=entry2_confs_1.gjf
 Output=C:\Users\kawas\Desktop\fluorescene_okuda\calcs\nucleosides_trial2\entries\entry2\entry2_confs_1.out
 Initial command:
 C:/G09W\l1.exe .\Gau-15396.inp C:\Users\kawas\Desktop\fluorescene_okuda\calcs\nucleosides_trial2\entries\entry2\entry2_confs_1.out /scrdir=.\
 Entering Link 1 = C:/G09W\l1.exe PID=     23004.
  
 Copyright (c) 1988,1990,1992,1993,1995,1998,2003,2009,2011,
            Gaussian, Inc.  All Rights Reserved.
  
 This is part of the Gaussian(R) 09 program.  It is based on
 the Gaussian(R) 03 system (copyright 2003, Gaussian, Inc.),
 the Gaussian(R) 98 system (copyright 1998, Gaussian, Inc.),
 the Gaussian(R) 94 system (copyright 1995, Gaussian, Inc.),
 the Gaussian 92(TM) system (copyright 1992, Gaussian, Inc.),
 the Gaussian 90(TM) system (copyright 1990, Gaussian, Inc.),
 the Gaussian 88(TM) system (copyright 1988, Gaussian, Inc.),
 the Gaussian 86(TM) system (copyright 1986, Carnegie Mellon
 University), and the Gaussian 82(TM) system (copyright 1983,
 Carnegie Mellon University). Gaussian is a federally registered
 trademark of Gaussian, Inc.
  
 This software contains proprietary and confidential information,
 including trade secrets, belonging to Gaussian, Inc.
  
 This software is provided under written license and may be
 used, copied, transmitted, or stored only in accord with that
 written license.
  
 The following legend is applicable only to US Government
 contracts under FAR:
  
                    RESTRICTED RIGHTS LEGEND
  
 Use, reproduction and disclosure by the US Government is
 subject to restrictions as set forth in subparagraphs (a)
 and (c) of the Commercial Computer Software - Restricted
 Rights clause in FAR 52.227-19.
  
 Gaussian, Inc.
 340 Quinnipiac St., Bldg. 40, Wallingford CT 06492
  
  
 ---------------------------------------------------------------
 Warning -- This program may not be used in any manner that
 competes with the business of Gaussian, Inc. or will provide
 assistance to any competitor of Gaussian, Inc.  The licensee
 of this program is prohibited from giving any competitor of
 Gaussian, Inc. access to this program.  By using this program,
 the user acknowledges that Gaussian, Inc. is engaged in the
 business of creating and licensing software in the field of
 computational chemistry and represents and warrants to the
 licensee that it is not a competitor of Gaussian, Inc. and that
 it will not use this program in any manner prohibited above.
 ---------------------------------------------------------------
  

 Cite this work as:
 Gaussian 09, Revision C.01,
 M. J. Frisch, G. W. Trucks, H. B. Schlegel, G. E. Scuseria, 
 M. A. Robb, J. R. Cheeseman, G. Scalmani, V. Barone, B. Mennucci, 
 G. A. Petersson, H. Nakatsuji, M. Caricato, X. Li, H. P. Hratchian, 
 A. F. Izmaylov, J. Bloino, G. Zheng, J. L. Sonnenberg, M. Hada, 
 M. Ehara, K. Toyota, R. Fukuda, J. Hasegawa, M. Ishida, T. Nakajima, 
 Y. Honda, O. Kitao, H. Nakai, T. Vreven, J. A. Montgomery, Jr., 
 J. E. Peralta, F. Ogliaro, M. Bearpark, J. J. Heyd, E. Brothers, 
 K. N. Kudin, V. N. Staroverov, T. Keith, R. Kobayashi, J. Normand, 
 K. Raghavachari, A. Rendell, J. C. Burant, S. S. Iyengar, J. Tomasi, 
 M. Cossi, N. Rega, J. M. Millam, M. Klene, J. E. Knox, J. B. Cross, 
 V. Bakken, C. Adamo, J. Jaramillo, R. Gomperts, R. E. Stratmann, 
 O. Yazyev, A. J. Austin, R. Cammi, C. Pomelli, J. W. Ochterski, 
 R. L. Martin, K. Morokuma, V. G. Zakrzewski, G. A. Voth, 
 P. Salvador, J. J. Dannenberg, S. Dapprich, A. D. Daniels, 
 O. Farkas, J. B. Foresman, J. V. Ortiz, J. Cioslowski, 
 and D. J. Fox, Gaussian, Inc., Wallingford CT, 2010.
 
 ******************************************
 Gaussian 09:  EM64W-G09RevC.01 23-Sep-2011
                13-Mar-2019 
 ******************************************
 %chk=entry2_confs_1
 %nprocshared=4
 Will use up to    4 processors via shared memory.
 %mem=260MB
 -------------
 #opt hf/3-21g
 -------------
 1/18=20,19=15,38=1/1,3;
 2/9=110,12=2,17=6,18=5,40=1/2;
 3/5=5,11=9,16=1,25=1,30=1,71=1/1,2,3;
 4//1;
 5/5=2,38=5/2;
 6/7=2,8=2,9=2,10=2,28=1/1;
 7//1,2,3,16;
 1/18=20,19=15/3(2);
 2/9=110/2;
 99//99;
 2/9=110/2;
 3/5=5,11=9,16=1,25=1,30=1,71=1/1,2,3;
 4/5=5,16=3/1;
 5/5=2,38=5/2;
 7//1,2,3,16;
 1/18=20,19=15/3(-5);
 2/9=110/2;
 6/7=2,8=2,9=2,10=2,19=2,28=1/1;
 99/9=1/99;
 ----------------------------------------------------------------------
 Conformer_1 at -54.66768848901698 MMFF energy generated from O[C@H]1C[
 C@@H](O[C@@H]1CO)N(C(N2)=O)C=C(C)C2=O
 ----------------------------------------------------------------------
 Charge =  0 Multiplicity = 1
 Symbolic Z-Matrix:
 O                    -2.7334    0.7763   -2.127 
 C                    -2.2449   -0.0269   -1.2249 
 C                    -0.7198   -0.048    -1.2234 
 C                    -0.4259    0.3393    0.2102 
 O                    -1.4902   -0.1789    0.8893 
 C                    -2.5454    0.4324    0.1845 
 C                    -3.8896   -0.0298    0.6602 
 O                    -4.8518    0.6339   -0.0986 
 N                     0.8575   -0.1786    0.5646 
 C                     1.0838   -1.1862    1.4159 
 N                     2.3502   -1.6094    1.6902 
 O                     0.1138   -1.7343    1.9569 
 C                     1.9334    0.3961   -0.0068 
 C                     3.2255    0.0018    0.2407 
 C                     4.3924    0.6757   -0.4226 
 C                     3.4239   -1.0313    1.116 
 O                     4.6017   -1.3946    1.3449 
 H                    -2.6953    0.721    -2.9787 
 H                    -2.6019   -1.0678   -1.3104 
 H                    -0.3408   -1.0638   -1.4034 
 H                    -0.2865    0.7163   -1.8723 
 H                    -0.4078    1.4347    0.3561 
 H                    -2.4016    1.5226    0.3025 
 H                    -4.037     0.0418    1.7333 
 H                    -3.9686   -1.1206    0.3791 
 H                    -4.5615    1.5831   -0.2002 
 H                     2.4836   -2.3934    2.3557 
 H                     1.8186    1.2279   -0.7148 
 H                     4.8797    1.4023    0.2503 
 H                     3.9802    1.2531   -1.2788 
 H                     5.0578   -0.0947   -0.8242 
 

 GradGradGradGradGradGradGradGradGradGradGradGradGradGradGradGradGradGrad
 Berny optimization.
 Initialization pass.
                           ----------------------------
                           !    Initial Parameters    !
                           ! (Angstroms and Degrees)  !
 --------------------------                            --------------------------
 ! Name  Definition              Value          Derivative Info.                !
 --------------------------------------------------------------------------------
 ! R1    R(1,2)                  1.3029         estimate D2E/DX2                !
 ! R2    R(1,18)                 0.8543         estimate D2E/DX2                !
 ! R3    R(2,3)                  1.5252         estimate D2E/DX2                !
 ! R4    R(2,6)                  1.5125         estimate D2E/DX2                !
 ! R5    R(2,19)                 1.1037         estimate D2E/DX2                !
 ! R6    R(3,4)                  1.5138         estimate D2E/DX2                !
 ! R7    R(3,20)                 1.099          estimate D2E/DX2                !
 ! R8    R(3,21)                 1.0922         estimate D2E/DX2                !
 ! R9    R(4,5)                  1.3647         estimate D2E/DX2                !
 ! R10   R(4,9)                  1.4286         estimate D2E/DX2                !
 ! R11   R(4,22)                 1.1052         estimate D2E/DX2                !
 ! R12   R(5,6)                  1.4085         estimate D2E/DX2                !
 ! R13   R(6,7)                  1.4989         estimate D2E/DX2                !
 ! R14   R(6,23)                 1.106          estimate D2E/DX2                !
 ! R15   R(7,8)                  1.3936         estimate D2E/DX2                !
 ! R16   R(7,24)                 1.0855         estimate D2E/DX2                !
 ! R17   R(7,25)                 1.1292         estimate D2E/DX2                !
 ! R18   R(8,26)                 0.9978         estimate D2E/DX2                !
 ! R19   R(9,10)                 1.3384         estimate D2E/DX2                !
 ! R20   R(9,13)                 1.347          estimate D2E/DX2                !
 ! R21   R(10,11)                1.3631         estimate D2E/DX2                !
 ! R22   R(10,12)                1.2385         estimate D2E/DX2                !
 ! R23   R(11,16)                1.3479         estimate D2E/DX2                !
 ! R24   R(11,27)                1.037          estimate D2E/DX2                !
 ! R25   R(13,14)                1.3734         estimate D2E/DX2                !
 ! R26   R(13,28)                1.0983         estimate D2E/DX2                !
 ! R27   R(14,15)                1.5019         estimate D2E/DX2                !
 ! R28   R(14,16)                1.3685         estimate D2E/DX2                !
 ! R29   R(15,29)                1.1037         estimate D2E/DX2                !
 ! R30   R(15,30)                1.1119         estimate D2E/DX2                !
 ! R31   R(15,31)                1.0943         estimate D2E/DX2                !
 ! R32   R(16,17)                1.2536         estimate D2E/DX2                !
 ! A1    A(2,1,18)             129.3172         estimate D2E/DX2                !
 ! A2    A(1,2,3)              112.5883         estimate D2E/DX2                !
 ! A3    A(1,2,6)              112.5499         estimate D2E/DX2                !
 ! A4    A(1,2,19)             113.9833         estimate D2E/DX2                !
 ! A5    A(3,2,6)              101.6506         estimate D2E/DX2                !
 ! A6    A(3,2,19)             108.0861         estimate D2E/DX2                !
 ! A7    A(6,2,19)             107.1158         estimate D2E/DX2                !
 ! A8    A(2,3,4)              101.0415         estimate D2E/DX2                !
 ! A9    A(2,3,20)             110.9429         estimate D2E/DX2                !
 ! A10   A(2,3,21)             112.7311         estimate D2E/DX2                !
 ! A11   A(4,3,20)             108.9426         estimate D2E/DX2                !
 ! A12   A(4,3,21)             107.8531         estimate D2E/DX2                !
 ! A13   A(20,3,21)            114.3716         estimate D2E/DX2                !
 ! A14   A(3,4,5)              102.8672         estimate D2E/DX2                !
 ! A15   A(3,4,9)              108.4571         estimate D2E/DX2                !
 ! A16   A(3,4,22)             112.4433         estimate D2E/DX2                !
 ! A17   A(5,4,9)              116.0721         estimate D2E/DX2                !
 ! A18   A(5,4,22)             108.8699         estimate D2E/DX2                !
 ! A19   A(9,4,22)             108.17           estimate D2E/DX2                !
 ! A20   A(4,5,6)               99.8141         estimate D2E/DX2                !
 ! A21   A(2,6,5)              100.6986         estimate D2E/DX2                !
 ! A22   A(2,6,7)              112.3496         estimate D2E/DX2                !
 ! A23   A(2,6,23)             111.8965         estimate D2E/DX2                !
 ! A24   A(5,6,7)              112.2841         estimate D2E/DX2                !
 ! A25   A(5,6,23)             106.0828         estimate D2E/DX2                !
 ! A26   A(7,6,23)             112.7494         estimate D2E/DX2                !
 ! A27   A(6,7,8)              107.4287         estimate D2E/DX2                !
 ! A28   A(6,7,24)             114.5289         estimate D2E/DX2                !
 ! A29   A(6,7,25)             106.3559         estimate D2E/DX2                !
 ! A30   A(8,7,24)             114.3989         estimate D2E/DX2                !
 ! A31   A(8,7,25)             106.0339         estimate D2E/DX2                !
 ! A32   A(24,7,25)            107.4755         estimate D2E/DX2                !
 ! A33   A(7,8,26)             107.916          estimate D2E/DX2                !
 ! A34   A(4,9,10)             125.6354         estimate D2E/DX2                !
 ! A35   A(4,9,13)             117.2359         estimate D2E/DX2                !
 ! A36   A(10,9,13)            117.1287         estimate D2E/DX2                !
 ! A37   A(9,10,11)            121.2536         estimate D2E/DX2                !
 ! A38   A(9,10,12)            118.5931         estimate D2E/DX2                !
 ! A39   A(11,10,12)           120.1533         estimate D2E/DX2                !
 ! A40   A(10,11,16)           121.4119         estimate D2E/DX2                !
 ! A41   A(10,11,27)           118.9062         estimate D2E/DX2                !
 ! A42   A(16,11,27)           119.682          estimate D2E/DX2                !
 ! A43   A(9,13,14)            123.5405         estimate D2E/DX2                !
 ! A44   A(9,13,28)            120.8696         estimate D2E/DX2                !
 ! A45   A(14,13,28)           115.5898         estimate D2E/DX2                !
 ! A46   A(13,14,15)           121.5027         estimate D2E/DX2                !
 ! A47   A(13,14,16)           117.9296         estimate D2E/DX2                !
 ! A48   A(15,14,16)           120.5677         estimate D2E/DX2                !
 ! A49   A(14,15,29)           111.6636         estimate D2E/DX2                !
 ! A50   A(14,15,30)           106.5615         estimate D2E/DX2                !
 ! A51   A(14,15,31)           108.5788         estimate D2E/DX2                !
 ! A52   A(29,15,30)           106.934          estimate D2E/DX2                !
 ! A53   A(29,15,31)           114.7546         estimate D2E/DX2                !
 ! A54   A(30,15,31)           107.9624         estimate D2E/DX2                !
 ! A55   A(11,16,14)           118.7358         estimate D2E/DX2                !
 ! A56   A(11,16,17)           123.1155         estimate D2E/DX2                !
 ! A57   A(14,16,17)           118.1487         estimate D2E/DX2                !
 ! D1    D(18,1,2,3)            66.2326         estimate D2E/DX2                !
 ! D2    D(18,1,2,6)          -179.5894         estimate D2E/DX2                !
 ! D3    D(18,1,2,19)          -57.3466         estimate D2E/DX2                !
 ! D4    D(1,2,3,4)            123.2758         estimate D2E/DX2                !
 ! D5    D(1,2,3,20)          -121.3315         estimate D2E/DX2                !
 ! D6    D(1,2,3,21)             8.415          estimate D2E/DX2                !
 ! D7    D(6,2,3,4)              2.6209         estimate D2E/DX2                !
 ! D8    D(6,2,3,20)           118.0136         estimate D2E/DX2                !
 ! D9    D(6,2,3,21)          -112.2399         estimate D2E/DX2                !
 ! D10   D(19,2,3,4)          -109.9267         estimate D2E/DX2                !
 ! D11   D(19,2,3,20)            5.466          estimate D2E/DX2                !
 ! D12   D(19,2,3,21)          135.2125         estimate D2E/DX2                !
 ! D13   D(1,2,6,5)           -155.1859         estimate D2E/DX2                !
 ! D14   D(1,2,6,7)             85.1492         estimate D2E/DX2                !
 ! D15   D(1,2,6,23)           -42.8657         estimate D2E/DX2                !
 ! D16   D(3,2,6,5)            -34.504          estimate D2E/DX2                !
 ! D17   D(3,2,6,7)           -154.169          estimate D2E/DX2                !
 ! D18   D(3,2,6,23)            77.8161         estimate D2E/DX2                !
 ! D19   D(19,2,6,5)            78.7719         estimate D2E/DX2                !
 ! D20   D(19,2,6,7)           -40.893          estimate D2E/DX2                !
 ! D21   D(19,2,6,23)         -168.9079         estimate D2E/DX2                !
 ! D22   D(2,3,4,5)             31.4011         estimate D2E/DX2                !
 ! D23   D(2,3,4,9)            154.8718         estimate D2E/DX2                !
 ! D24   D(2,3,4,22)           -85.554          estimate D2E/DX2                !
 ! D25   D(20,3,4,5)           -85.4711         estimate D2E/DX2                !
 ! D26   D(20,3,4,9)            37.9996         estimate D2E/DX2                !
 ! D27   D(20,3,4,22)          157.5738         estimate D2E/DX2                !
 ! D28   D(21,3,4,5)           149.8557         estimate D2E/DX2                !
 ! D29   D(21,3,4,9)           -86.6736         estimate D2E/DX2                !
 ! D30   D(21,3,4,22)           32.9006         estimate D2E/DX2                !
 ! D31   D(3,4,5,6)            -55.3446         estimate D2E/DX2                !
 ! D32   D(9,4,5,6)           -173.5938         estimate D2E/DX2                !
 ! D33   D(22,4,5,6)            64.1222         estimate D2E/DX2                !
 ! D34   D(3,4,9,10)          -109.5626         estimate D2E/DX2                !
 ! D35   D(3,4,9,13)            70.4379         estimate D2E/DX2                !
 ! D36   D(5,4,9,10)             5.5673         estimate D2E/DX2                !
 ! D37   D(5,4,9,13)          -174.4322         estimate D2E/DX2                !
 ! D38   D(22,4,9,10)          128.2199         estimate D2E/DX2                !
 ! D39   D(22,4,9,13)          -51.7796         estimate D2E/DX2                !
 ! D40   D(4,5,6,2)             56.4599         estimate D2E/DX2                !
 ! D41   D(4,5,6,7)            176.172          estimate D2E/DX2                !
 ! D42   D(4,5,6,23)           -60.249          estimate D2E/DX2                !
 ! D43   D(2,6,7,8)            -67.3746         estimate D2E/DX2                !
 ! D44   D(2,6,7,24)           164.3696         estimate D2E/DX2                !
 ! D45   D(2,6,7,25)            45.819          estimate D2E/DX2                !
 ! D46   D(5,6,7,8)            179.9562         estimate D2E/DX2                !
 ! D47   D(5,6,7,24)            51.7004         estimate D2E/DX2                !
 ! D48   D(5,6,7,25)           -66.8503         estimate D2E/DX2                !
 ! D49   D(23,6,7,8)            60.1887         estimate D2E/DX2                !
 ! D50   D(23,6,7,24)          -68.0671         estimate D2E/DX2                !
 ! D51   D(23,6,7,25)          173.3822         estimate D2E/DX2                !
 ! D52   D(6,7,8,26)           -41.6159         estimate D2E/DX2                !
 ! D53   D(24,7,8,26)           86.7149         estimate D2E/DX2                !
 ! D54   D(25,7,8,26)         -155.0265         estimate D2E/DX2                !
 ! D55   D(4,9,10,11)         -179.992          estimate D2E/DX2                !
 ! D56   D(4,9,10,12)           -0.0012         estimate D2E/DX2                !
 ! D57   D(13,9,10,11)           0.0074         estimate D2E/DX2                !
 ! D58   D(13,9,10,12)         179.9982         estimate D2E/DX2                !
 ! D59   D(4,9,13,14)          179.9953         estimate D2E/DX2                !
 ! D60   D(4,9,13,28)           -0.005          estimate D2E/DX2                !
 ! D61   D(10,9,13,14)          -0.0042         estimate D2E/DX2                !
 ! D62   D(10,9,13,28)         179.9955         estimate D2E/DX2                !
 ! D63   D(9,10,11,16)          -0.0089         estimate D2E/DX2                !
 ! D64   D(9,10,11,27)         179.9961         estimate D2E/DX2                !
 ! D65   D(12,10,11,16)       -179.9995         estimate D2E/DX2                !
 ! D66   D(12,10,11,27)          0.0055         estimate D2E/DX2                !
 ! D67   D(10,11,16,14)          0.0064         estimate D2E/DX2                !
 ! D68   D(10,11,16,17)       -179.9948         estimate D2E/DX2                !
 ! D69   D(27,11,16,14)       -179.9986         estimate D2E/DX2                !
 ! D70   D(27,11,16,17)          0.0002         estimate D2E/DX2                !
 ! D71   D(9,13,14,15)         179.9996         estimate D2E/DX2                !
 ! D72   D(9,13,14,16)           0.002          estimate D2E/DX2                !
 ! D73   D(28,13,14,15)         -0.0001         estimate D2E/DX2                !
 ! D74   D(28,13,14,16)       -179.9976         estimate D2E/DX2                !
 ! D75   D(13,14,15,29)        100.4216         estimate D2E/DX2                !
 ! D76   D(13,14,15,30)        -16.0078         estimate D2E/DX2                !
 ! D77   D(13,14,15,31)       -132.0727         estimate D2E/DX2                !
 ! D78   D(16,14,15,29)        -79.5809         estimate D2E/DX2                !
 ! D79   D(16,14,15,30)        163.9897         estimate D2E/DX2                !
 ! D80   D(16,14,15,31)         47.9248         estimate D2E/DX2                !
 ! D81   D(13,14,16,11)         -0.003          estimate D2E/DX2                !
 ! D82   D(13,14,16,17)        179.9982         estimate D2E/DX2                !
 ! D83   D(15,14,16,11)        179.9994         estimate D2E/DX2                !
 ! D84   D(15,14,16,17)          0.0006         estimate D2E/DX2                !
 --------------------------------------------------------------------------------
 Trust Radius=3.00D-01 FncErr=1.00D-07 GrdErr=1.00D-07
 Number of steps in this run=    183 maximum allowed number of steps=    186.
 GradGradGradGradGradGradGradGradGradGradGradGradGradGradGradGradGradGrad

                          Input orientation:                          
 ---------------------------------------------------------------------
 Center     Atomic      Atomic             Coordinates (Angstroms)
 Number     Number       Type             X           Y           Z
 ---------------------------------------------------------------------
      1          8           0       -2.733400    0.776300   -2.127000
      2          6           0       -2.244900   -0.026900   -1.224900
      3          6           0       -0.719800   -0.048000   -1.223400
      4          6           0       -0.425900    0.339300    0.210200
      5          8           0       -1.490200   -0.178900    0.889300
      6          6           0       -2.545400    0.432400    0.184500
      7          6           0       -3.889600   -0.029800    0.660200
      8          8           0       -4.851800    0.633900   -0.098600
      9          7           0        0.857500   -0.178600    0.564600
     10          6           0        1.083800   -1.186200    1.415900
     11          7           0        2.350200   -1.609400    1.690200
     12          8           0        0.113800   -1.734300    1.956900
     13          6           0        1.933400    0.396100   -0.006800
     14          6           0        3.225500    0.001800    0.240700
     15          6           0        4.392400    0.675700   -0.422600
     16          6           0        3.423900   -1.031300    1.116000
     17          8           0        4.601700   -1.394600    1.344900
     18          1           0       -2.695300    0.721000   -2.978700
     19          1           0       -2.601900   -1.067800   -1.310400
     20          1           0       -0.340800   -1.063800   -1.403400
     21          1           0       -0.286500    0.716300   -1.872300
     22          1           0       -0.407800    1.434700    0.356100
     23          1           0       -2.401600    1.522600    0.302500
     24          1           0       -4.037000    0.041800    1.733300
     25          1           0       -3.968600   -1.120600    0.379100
     26          1           0       -4.561500    1.583100   -0.200200
     27          1           0        2.483600   -2.393400    2.355700
     28          1           0        1.818600    1.227900   -0.714800
     29          1           0        4.879700    1.402300    0.250300
     30          1           0        3.980200    1.253100   -1.278800
     31          1           0        5.057800   -0.094700   -0.824200
 ---------------------------------------------------------------------
                    Distance matrix (angstroms):
                    1          2          3          4          5
     1  O    0.000000
     2  C    1.302899   0.000000
     3  C    2.355960   1.525247   0.000000
     4  C    3.313311   2.345714   1.513799   0.000000
     5  O    3.399415   2.250004   2.252588   1.364713   0.000000
     6  C    2.344492   1.512503   2.354948   2.121699   1.408502
     7  C    3.123312   2.501729   3.687264   3.512257   2.414920
     8  O    2.936376   2.915671   4.336310   4.446430   3.596796
     9  N    4.588149   3.584719   2.387860   1.428613   2.370048
    10  C    5.565480   4.404321   3.393284   2.461718   2.813794
    11  N    6.790108   5.667191   4.511312   3.700617   4.175697
    12  O    5.575652   4.313065   3.694970   2.764427   2.476258
    13  C    5.139924   4.372744   2.952425   2.369939   3.585339
    14  C    6.458664   5.663399   4.208499   3.667091   4.763524
    15  C    7.327491   6.722431   5.224903   4.871305   6.087397
    16  C    7.190049   6.214815   4.859004   4.185687   4.992630
    17  O    8.400630   7.439785   6.060351   5.437896   6.228703
    18  H    0.854343   1.959089   2.752279   3.932551   4.150122
    19  H    2.021097   1.103736   2.142396   3.004518   2.620057
    20  H    3.103885   2.175459   1.099041   2.140009   2.713050
    21  H    2.460852   2.192442   1.092234   2.120936   3.142724
    22  H    3.465212   2.830331   2.188736   1.105222   2.014844
    23  H    2.563108   2.181389   2.761088   2.304801   2.017446
    24  H    4.140142   3.459377   4.444542   3.930443   2.692069
    25  H    3.377053   2.596177   3.777986   3.835435   2.699920
    26  H    2.775866   3.001457   4.297218   4.338047   3.704664
    27  H    7.573552   6.385901   5.345337   4.531667   4.779689
    28  H    4.787375   4.283311   2.886186   2.585153   3.937052
    29  H    8.000170   7.414766   5.969050   5.411189   6.594251
    30  H    6.783746   6.355563   4.877082   4.739817   6.056117
    31  H    7.947246   7.313999   5.791563   5.597259   6.769008
                    6          7          8          9         10
     6  C    0.000000
     7  C    1.498931   0.000000
     8  O    2.332430   1.393594   0.000000
     9  N    3.478150   4.750394   5.804834   0.000000
    10  C    4.160205   5.161691   6.390448   1.338350   0.000000
    11  N    5.513890   6.518523   7.752484   2.354213   1.363124
    12  O    3.861002   4.540260   5.872873   2.216256   1.238545
    13  C    4.483031   5.876530   6.789986   1.346974   2.291194
    14  C    5.787215   7.127526   8.109097   2.396848   2.716490
    15  C    6.968560   8.382226   9.249971   3.768277   4.218245
    16  C    6.216321   7.395812   8.528502   2.759991   2.364319
    17  O    7.467630   8.627495   9.775846   4.013298   3.524783
    18  H    3.179873   3.902774   3.599035   5.097710   6.101764
    19  H    2.118612   2.572718   3.070227   4.034074   4.585969
    20  H    3.101661   4.233389   4.993377   2.468304   3.161158
    21  H    3.068168   4.466828   4.898445   2.836911   4.038501
    22  H    2.367147   3.789481   4.538410   2.060872   3.196430
    23  H    1.105956   2.179917   2.637072   3.685717   4.552502
    24  H    2.185457   1.085540   2.090536   5.036920   5.275540
    25  H    2.115461   1.129205   2.021512   4.920672   5.158101
    26  H    2.353033   1.947610   0.997786   5.749267   6.492320
    27  H    6.163611   7.005641   8.306397   3.279875   2.073643
    28  H    4.526153   6.004663   6.725085   2.130451   3.302680
    29  H    7.488468   8.894917   9.768022   4.333142   4.740022
    30  H    6.737822   8.206053   8.931993   3.898608   4.647658
    31  H    7.687910   9.069930   9.962807   4.424740   4.690639
                   11         12         13         14         15
    11  N    0.000000
    12  O    2.255707   0.000000
    13  C    2.659993   3.421354   0.000000
    14  C    2.337342   3.955005   1.373409   0.000000
    15  C    3.722390   5.456788   2.509531   1.501920   0.000000
    16  C    1.347864   3.486844   2.349413   1.368506   2.493819
    17  O    2.287930   4.542157   3.486191   2.250137   2.730202
    18  H    7.258544   6.187058   5.510228   6.777732   7.534666
    19  H    5.815516   4.300523   4.940782   6.124422   7.262797
    20  H    4.136366   3.456566   3.042003   4.069037   5.137218
    21  H    5.005245   4.563820   2.917289   4.160459   4.898508
    22  H    4.318904   3.588480   2.586813   3.907351   4.921826
    23  H    5.857878   4.435276   4.489643   5.829314   6.884871
    24  H    6.597321   4.520362   6.228897   7.414402   8.723790
    25  H    6.471873   4.419510   6.105973   7.282445   8.589280
    26  H    7.844569   6.125084   6.605308   7.958158   9.002509
    27  H    1.036987   2.491868   3.696679   3.280339   4.558711
    28  H    3.757246   4.338082   1.098332   2.096585   2.648538
    29  H    4.188319   5.955212   3.123975   2.167457   1.103722
    30  H    4.434610   5.860321   2.557699   2.108128   1.111925
    31  H    3.993447   5.904739   3.266635   2.121473   1.094329
                   16         17         18         19         20
    16  C    0.000000
    17  O    1.253633   0.000000
    18  H    7.568470   8.741595   0.000000
    19  H    6.496077   7.684352   2.447806   0.000000
    20  H    4.530055   5.664882   3.348246   2.263015   0.000000
    21  H    5.074555   6.220995   2.650747   2.976545   1.841622
    22  H    4.619581   5.837615   4.106448   3.722070   3.056605
    23  H    6.412538   7.657863   3.390442   3.058061   3.721083
    24  H    7.562912   8.765913   4.946152   3.543280   4.972236
    25  H    7.429674   8.628898   4.035790   2.173722   4.042458
    26  H    8.504945   9.757985   3.456296   3.478483   5.125239
    27  H    2.067931   2.550621   8.060789   6.407793   4.886298
    28  H    3.321566   4.343445   5.075183   5.016552   3.223208
    29  H    2.964996   3.016303   8.262641   8.031906   6.005830
    30  H    3.356042   3.778939   6.909059   6.979371   4.904548
    31  H    2.703928   2.569584   8.088127   7.736557   5.515388
                   21         22         23         24         25
    21  H    0.000000
    22  H    2.344478   0.000000
    23  H    3.139032   1.996456   0.000000
    24  H    5.246099   4.124069   2.629542   0.000000
    25  H    4.690508   4.382851   3.073738   1.785976   0.000000
    26  H    4.671497   4.193413   2.218453   2.527672   2.827917
    27  H    5.934616   5.197398   6.589072   6.988262   6.867158
    28  H    2.456214   2.479204   4.351073   6.456631   6.340643
    29  H    5.627224   5.288658   7.282481   9.140995   9.201849
    30  H    4.341097   4.686195   6.580312   8.649595   8.459699
    31  H    5.506158   5.796978   7.715424   9.448536   9.163858
                   26         27         28         29         30
    26  H    0.000000
    27  H    8.484021   0.000000
    28  H    6.410667   4.794164   0.000000
    29  H    9.453671   4.957958   3.214369   0.000000
    30  H    8.615853   5.361564   2.234110   1.780311   0.000000
    31  H    9.784443   4.692791   3.500522   1.851291   1.784502
                   31
    31  H    0.000000
 Stoichiometry    C10H14N2O5
 Framework group  C1[X(C10H14N2O5)]
 Deg. of freedom    87
 Full point group                 C1      NOp   1
 Largest Abelian subgroup         C1      NOp   1
 Largest concise Abelian subgroup C1      NOp   1
                         Standard orientation:                         
 ---------------------------------------------------------------------
 Center     Atomic      Atomic             Coordinates (Angstroms)
 Number     Number       Type             X           Y           Z
 ---------------------------------------------------------------------
      1          8           0        3.281274    1.848997    0.574420
      2          6           0        2.539478    0.788841    0.727242
      3          6           0        1.048417    1.109385    0.708099
      4          6           0        0.574413    0.216729   -0.418876
      5          8           0        1.425213   -0.847538   -0.341961
      6          6           0        2.659569   -0.175137   -0.432064
      7          6           0        3.825622   -1.104935   -0.281765
      8          8           0        4.985735   -0.340039   -0.387474
      9          7           0       -0.810316   -0.070498   -0.216490
     10          6           0       -1.316526   -1.256883    0.140474
     11          7           0       -2.657828   -1.431602    0.309261
     12          8           0       -0.538637   -2.204381    0.316921
     13          6           0       -1.682644    0.939203   -0.400573
     14          6           0       -3.040430    0.807482   -0.241453
     15          6           0       -3.972069    1.965306   -0.458836
     16          6           0       -3.527059   -0.418271    0.123966
     17          8           0       -4.765836   -0.543111    0.270397
     18          1           0        3.379978    2.520080    1.093850
     19          1           0        2.755640    0.218869    1.647370
     20          1           0        0.566035    0.790572    1.642742
     21          1           0        0.842751    2.144017    0.424880
     22          1           0        0.686355    0.692956   -1.409933
     23          1           0        2.652856    0.348430   -1.406216
     24          1           0        3.798498   -1.971140   -0.935485
     25          1           0        3.796544   -1.482040    0.782213
     26          1           0        4.853292    0.318043   -1.125691
     27          1           0       -3.010590   -2.366569    0.586276
     28          1           0       -1.334130    1.938579   -0.694034
     29          1           0       -4.458672    1.916526   -1.448301
     30          1           0       -3.344238    2.882996   -0.451566
     31          1           0       -4.661928    2.021640    0.388794
 ---------------------------------------------------------------------
 Rotational constants (GHZ):      1.2608010      0.2364935      0.2080685
 Standard basis: 3-21G (6D, 7F)
 There are   181 symmetry adapted basis functions of A   symmetry.
 Integral buffers will be    131072 words long.
 Raffenetti 1 integral format.
 Two-electron integral symmetry is turned on.
   181 basis functions,   297 primitive gaussians,   181 cartesian basis functions
    64 alpha electrons       64 beta electrons
       nuclear repulsion energy      1300.3207324210 Hartrees.
 NAtoms=   31 NActive=   31 NUniq=   31 SFac= 1.00D+00 NAtFMM=   60 NAOKFM=F Big=F
 One-electron integrals computed using PRISM.
 NBasis=   181 RedAO= T  NBF=   181
 NBsUse=   181 1.00D-06 NBFU=   181
 Harris functional with IExCor=  205 diagonalized for initial guess.
 ExpMin= 1.83D-01 ExpMax= 3.22D+02 ExpMxC= 3.22D+02 IAcc=1 IRadAn=         1 AccDes= 0.00D+00
 HarFok:  IExCor=  205 AccDes= 0.00D+00 IRadAn=         1 IDoV= 1
 ScaDFX=  1.000000  1.000000  1.000000  1.000000
 FoFCou: FMM=F IPFlag=           0 FMFlag=      100000 FMFlg1=           0
         NFxFlg=           0 DoJE=T BraDBF=F KetDBF=T FulRan=T
         Omega=  0.000000  0.000000  1.000000  0.000000  0.000000 ICntrl=     500 IOpCl=  0
         NMat0=    1 NMatS0=    1 NMatT0=    0 NMatD0=    1 NMtDS0=    0 NMtDT0=    0
         I1Cent=           4 NGrid=           0.
 Petite list used in FoFCou.
 Initial guess orbital symmetries:
       Occupied  (A) (A) (A) (A) (A) (A) (A) (A) (A) (A) (A) (A)
                 (A) (A) (A) (A) (A) (A) (A) (A) (A) (A) (A) (A)
                 (A) (A) (A) (A) (A) (A) (A) (A) (A) (A) (A) (A)
                 (A) (A) (A) (A) (A) (A) (A) (A) (A) (A) (A) (A)
                 (A) (A) (A) (A) (A) (A) (A) (A) (A) (A) (A) (A)
                 (A) (A) (A) (A)
       Virtual   (A) (A) (A) (A) (A) (A) (A) (A) (A) (A) (A) (A)
                 (A) (A) (A) (A) (A) (A) (A) (A) (A) (A) (A) (A)
                 (A) (A) (A) (A) (A) (A) (A) (A) (A) (A) (A) (A)
                 (A) (A) (A) (A) (A) (A) (A) (A) (A) (A) (A) (A)
                 (A) (A) (A) (A) (A) (A) (A) (A) (A) (A) (A) (A)
                 (A) (A) (A) (A) (A) (A) (A) (A) (A) (A) (A) (A)
                 (A) (A) (A) (A) (A) (A) (A) (A) (A) (A) (A) (A)
                 (A) (A) (A) (A) (A) (A) (A) (A) (A) (A) (A) (A)
                 (A) (A) (A) (A) (A) (A) (A) (A) (A) (A) (A) (A)
                 (A) (A) (A) (A) (A) (A) (A) (A) (A)
 The electronic state of the initial guess is 1-A.
 Requested convergence on RMS density matrix=1.00D-08 within 128 cycles.
 Requested convergence on MAX density matrix=1.00D-06.
 Requested convergence on             energy=1.00D-06.
 No special actions if energy rises.
 Integral accuracy reduced to 1.0D-05 until final iterations.
 Initial convergence to 1.0D-05 achieved.  Increase integral accuracy.
 SCF Done:  E(RHF) =  -865.102630331     A.U. after   16 cycles
             Convg  =    0.4061D-08             -V/T =  2.0007

 **********************************************************************

            Population analysis using the SCF density.

 **********************************************************************

 Orbital symmetries:
       Occupied  (A) (A) (A) (A) (A) (A) (A) (A) (A) (A) (A) (A)
                 (A) (A) (A) (A) (A) (A) (A) (A) (A) (A) (A) (A)
                 (A) (A) (A) (A) (A) (A) (A) (A) (A) (A) (A) (A)
                 (A) (A) (A) (A) (A) (A) (A) (A) (A) (A) (A) (A)
                 (A) (A) (A) (A) (A) (A) (A) (A) (A) (A) (A) (A)
                 (A) (A) (A) (A)
       Virtual   (A) (A) (A) (A) (A) (A) (A) (A) (A) (A) (A) (A)
                 (A) (A) (A) (A) (A) (A) (A) (A) (A) (A) (A) (A)
                 (A) (A) (A) (A) (A) (A) (A) (A) (A) (A) (A) (A)
                 (A) (A) (A) (A) (A) (A) (A) (A) (A) (A) (A) (A)
                 (A) (A) (A) (A) (A) (A) (A) (A) (A) (A) (A) (A)
                 (A) (A) (A) (A) (A) (A) (A) (A) (A) (A) (A) (A)
                 (A) (A) (A) (A) (A) (A) (A) (A) (A) (A) (A) (A)
                 (A) (A) (A) (A) (A) (A) (A) (A) (A) (A) (A) (A)
                 (A) (A) (A) (A) (A) (A) (A) (A) (A) (A) (A) (A)
                 (A) (A) (A) (A) (A) (A) (A) (A) (A)
 The electronic state is 1-A.
 Alpha  occ. eigenvalues --  -20.48734 -20.45168 -20.44868 -20.41372 -20.41062
 Alpha  occ. eigenvalues --  -15.57645 -15.55550 -11.35334 -11.30368 -11.30265
 Alpha  occ. eigenvalues --  -11.27888 -11.25045 -11.24296 -11.22670 -11.19656
 Alpha  occ. eigenvalues --  -11.18556 -11.18128  -1.47795  -1.43885  -1.42866
 Alpha  occ. eigenvalues --   -1.37619  -1.36610  -1.32358  -1.26311  -1.11782
 Alpha  occ. eigenvalues --   -1.09229  -1.05821  -0.96751  -0.95489  -0.92939
 Alpha  occ. eigenvalues --   -0.89861  -0.85550  -0.84006  -0.79247  -0.77804
 Alpha  occ. eigenvalues --   -0.75855  -0.72910  -0.72280  -0.68287  -0.67336
 Alpha  occ. eigenvalues --   -0.66392  -0.65748  -0.63984  -0.62976  -0.59741
 Alpha  occ. eigenvalues --   -0.59387  -0.58650  -0.58423  -0.57484  -0.55793
 Alpha  occ. eigenvalues --   -0.55260  -0.54525  -0.53237  -0.52142  -0.50137
 Alpha  occ. eigenvalues --   -0.48533  -0.47257  -0.44846  -0.44283  -0.43490
 Alpha  occ. eigenvalues --   -0.41691  -0.41226  -0.39767  -0.32952
 Alpha virt. eigenvalues --    0.09950   0.19244   0.20860   0.23520   0.24288
 Alpha virt. eigenvalues --    0.25507   0.26715   0.28542   0.29182   0.29642
 Alpha virt. eigenvalues --    0.30707   0.31748   0.33016   0.34379   0.35278
 Alpha virt. eigenvalues --    0.36562   0.37210   0.38327   0.39321   0.41889
 Alpha virt. eigenvalues --    0.42361   0.44092   0.46472   0.47779   0.48394
 Alpha virt. eigenvalues --    0.49373   0.50347   0.55027   0.56694   0.57362
 Alpha virt. eigenvalues --    0.60282   0.63234   0.67928   0.69454   0.79364
 Alpha virt. eigenvalues --    0.86867   0.90395   0.93079   0.94005   0.95326
 Alpha virt. eigenvalues --    0.96305   0.96879   0.97857   0.98119   0.99880
 Alpha virt. eigenvalues --    1.00174   1.00704   1.01204   1.03349   1.04551
 Alpha virt. eigenvalues --    1.04930   1.06837   1.08361   1.10401   1.13096
 Alpha virt. eigenvalues --    1.14079   1.15301   1.18611   1.19337   1.21662
 Alpha virt. eigenvalues --    1.22995   1.24953   1.26416   1.28475   1.30553
 Alpha virt. eigenvalues --    1.31865   1.32287   1.34610   1.35407   1.36824
 Alpha virt. eigenvalues --    1.38132   1.38708   1.39339   1.44571   1.44918
 Alpha virt. eigenvalues --    1.46065   1.46621   1.49283   1.55031   1.55727
 Alpha virt. eigenvalues --    1.60757   1.67605   1.73591   1.77776   1.84923
 Alpha virt. eigenvalues --    1.85604   1.89467   1.92413   1.95791   1.96988
 Alpha virt. eigenvalues --    1.98851   1.99733   2.00388   2.01873   2.02991
 Alpha virt. eigenvalues --    2.03713   2.04973   2.11368   2.12995   2.17762
 Alpha virt. eigenvalues --    2.18821   2.20801   2.23003   2.27605   2.32987
 Alpha virt. eigenvalues --    2.34562   2.40073   2.47650   2.49649   3.12576
 Alpha virt. eigenvalues --    3.19275   3.29415   3.43513   3.65601   3.77366
 Alpha virt. eigenvalues --    3.84755   3.86659
          Condensed to atoms (all electrons):
              1          2          3          4          5          6
     1  O    8.424641   0.171795  -0.066068   0.003259   0.000609  -0.046341
     2  C    0.171795   5.283247   0.195274  -0.068042  -0.068294   0.121149
     3  C   -0.066068   0.195274   5.855901   0.179006  -0.079722  -0.120064
     4  C    0.003259  -0.068042   0.179006   5.022854   0.238738  -0.188987
     5  O    0.000609  -0.068294  -0.079722   0.238738   8.475259   0.164565
     6  C   -0.046341   0.121149  -0.120064  -0.188987   0.164565   5.739598
     7  C    0.002755  -0.085154   0.005443   0.005207  -0.017342   0.205586
     8  O   -0.000849   0.009732   0.000042  -0.000018   0.000356  -0.054826
     9  N   -0.000007   0.004152  -0.079576   0.132311  -0.017934   0.003622
    10  C    0.000000  -0.000089   0.000952  -0.042389  -0.000763   0.000581
    11  N    0.000000   0.000000  -0.000027   0.000408  -0.000001   0.000001
    12  O    0.000000  -0.000025  -0.000089  -0.002560  -0.004169   0.000431
    13  C   -0.000001   0.000188  -0.007371  -0.056700   0.000948  -0.000186
    14  C    0.000000  -0.000001   0.000015   0.001712  -0.000021   0.000001
    15  C    0.000000   0.000000   0.000003  -0.000049   0.000000   0.000000
    16  C    0.000000   0.000000  -0.000012   0.000011   0.000002   0.000000
    17  O    0.000000   0.000000   0.000000   0.000000   0.000000   0.000000
    18  H    0.306181  -0.031582  -0.000722  -0.000131  -0.000031   0.004737
    19  H   -0.042287   0.390987  -0.063434   0.006461   0.003316  -0.064694
    20  H    0.002017  -0.037028   0.371645  -0.040978   0.001814   0.006820
    21  H    0.001082  -0.040272   0.358911  -0.042214   0.002947   0.003158
    22  H    0.000234   0.000342  -0.076394   0.394329  -0.042669  -0.008869
    23  H    0.004868  -0.065413  -0.003283  -0.014048  -0.038536   0.364298
    24  H   -0.000046   0.004919  -0.000092  -0.000136   0.002067  -0.057103
    25  H    0.000102  -0.009575  -0.000127  -0.000216   0.002128  -0.055751
    26  H    0.003059  -0.001747   0.000061  -0.000024   0.000067  -0.007815
    27  H    0.000000   0.000000   0.000001  -0.000009   0.000001   0.000000
    28  H   -0.000001  -0.000003  -0.000482  -0.001131   0.000033  -0.000003
    29  H    0.000000   0.000000   0.000000   0.000001   0.000000   0.000000
    30  H    0.000000   0.000000  -0.000002  -0.000003   0.000000   0.000000
    31  H    0.000000   0.000000   0.000000   0.000001   0.000000   0.000000
              7          8          9         10         11         12
     1  O    0.002755  -0.000849  -0.000007   0.000000   0.000000   0.000000
     2  C   -0.085154   0.009732   0.004152  -0.000089   0.000000  -0.000025
     3  C    0.005443   0.000042  -0.079576   0.000952  -0.000027  -0.000089
     4  C    0.005207  -0.000018   0.132311  -0.042389   0.000408  -0.002560
     5  O   -0.017342   0.000356  -0.017934  -0.000763  -0.000001  -0.004169
     6  C    0.205586  -0.054826   0.003622   0.000581   0.000001   0.000431
     7  C    5.054942   0.220194  -0.000037  -0.000003   0.000000  -0.000003
     8  O    0.220194   8.302315   0.000000   0.000000   0.000000   0.000000
     9  N   -0.000037   0.000000   8.171373   0.066476  -0.097028  -0.090742
    10  C   -0.000003   0.000000   0.066476   4.076205   0.137636   0.613469
    11  N    0.000000   0.000000  -0.097028   0.137636   7.942638  -0.076318
    12  O   -0.000003   0.000000  -0.090742   0.613469  -0.076318   8.184104
    13  C    0.000001   0.000000   0.168157  -0.066362   0.003915   0.000834
    14  C    0.000000   0.000000  -0.044185   0.012093  -0.154205   0.000093
    15  C    0.000000   0.000000   0.002256   0.000064   0.002556   0.000000
    16  C    0.000000   0.000000  -0.004159  -0.048936   0.074441  -0.000096
    17  O    0.000000   0.000000   0.000006   0.000049  -0.073841  -0.000001
    18  H   -0.000193   0.000130   0.000000   0.000000   0.000000   0.000000
    19  H   -0.004554  -0.000166  -0.000162  -0.000008   0.000000  -0.000001
    20  H   -0.000157   0.000000  -0.003554   0.001012  -0.000039   0.000054
    21  H   -0.000075   0.000000   0.001461  -0.000055   0.000000  -0.000001
    22  H   -0.000218   0.000001  -0.050115   0.001132  -0.000015   0.000034
    23  H   -0.038597  -0.001342  -0.000366  -0.000041   0.000000  -0.000011
    24  H    0.374080  -0.033240  -0.000001   0.000000   0.000000   0.000000
    25  H    0.380489  -0.034111   0.000000   0.000000   0.000000   0.000000
    26  H   -0.059994   0.268162   0.000000   0.000000   0.000000   0.000000
    27  H    0.000000   0.000000   0.002045  -0.020264   0.321456   0.000512
    28  H    0.000000   0.000000  -0.030730   0.000709  -0.000022  -0.000029
    29  H    0.000000   0.000000  -0.000008   0.000000  -0.000016   0.000000
    30  H    0.000000   0.000000   0.000071  -0.000011   0.000001   0.000000
    31  H    0.000000   0.000000  -0.000022  -0.000002   0.000057   0.000000
             13         14         15         16         17         18
     1  O   -0.000001   0.000000   0.000000   0.000000   0.000000   0.306181
     2  C    0.000188  -0.000001   0.000000   0.000000   0.000000  -0.031582
     3  C   -0.007371   0.000015   0.000003  -0.000012   0.000000  -0.000722
     4  C   -0.056700   0.001712  -0.000049   0.000011   0.000000  -0.000131
     5  O    0.000948  -0.000021   0.000000   0.000002   0.000000  -0.000031
     6  C   -0.000186   0.000001   0.000000   0.000000   0.000000   0.004737
     7  C    0.000001   0.000000   0.000000   0.000000   0.000000  -0.000193
     8  O    0.000000   0.000000   0.000000   0.000000   0.000000   0.000130
     9  N    0.168157  -0.044185   0.002256  -0.004159   0.000006   0.000000
    10  C   -0.066362   0.012093   0.000064  -0.048936   0.000049   0.000000
    11  N    0.003915  -0.154205   0.002556   0.074441  -0.073841   0.000000
    12  O    0.000834   0.000093   0.000000  -0.000096  -0.000001   0.000000
    13  C    4.989101   0.437106  -0.059890  -0.080489   0.004269   0.000000
    14  C    0.437106   6.164550   0.219455   0.024938  -0.133378   0.000000
    15  C   -0.059890   0.219455   5.285684  -0.067407   0.001220   0.000000
    16  C   -0.080489   0.024938  -0.067407   4.532662   0.618275   0.000000
    17  O    0.004269  -0.133378   0.001220   0.618275   8.217337   0.000000
    18  H    0.000000   0.000000   0.000000   0.000000   0.000000   0.314978
    19  H   -0.000009   0.000000   0.000000   0.000000   0.000000  -0.001327
    20  H    0.000278  -0.000123   0.000000   0.000014   0.000000   0.000060
    21  H    0.000620   0.000010  -0.000002  -0.000001   0.000000   0.000777
    22  H   -0.000446   0.000186   0.000001   0.000002   0.000000   0.000002
    23  H   -0.000003   0.000000   0.000000   0.000000   0.000000  -0.000085
    24  H    0.000000   0.000000   0.000000   0.000000   0.000000   0.000003
    25  H    0.000000   0.000000   0.000000   0.000000   0.000000  -0.000003
    26  H    0.000000   0.000000   0.000000   0.000000   0.000000  -0.000029
    27  H   -0.000805   0.005166  -0.000026  -0.019840   0.000408   0.000000
    28  H    0.378902  -0.031509  -0.000793   0.002716  -0.000017   0.000000
    29  H    0.000314  -0.053099   0.387762  -0.001965   0.000206   0.000000
    30  H   -0.006305  -0.062587   0.376040   0.006441   0.000248   0.000000
    31  H    0.002265  -0.056546   0.386741  -0.002422   0.004539   0.000000
             19         20         21         22         23         24
     1  O   -0.042287   0.002017   0.001082   0.000234   0.004868  -0.000046
     2  C    0.390987  -0.037028  -0.040272   0.000342  -0.065413   0.004919
     3  C   -0.063434   0.371645   0.358911  -0.076394  -0.003283  -0.000092
     4  C    0.006461  -0.040978  -0.042214   0.394329  -0.014048  -0.000136
     5  O    0.003316   0.001814   0.002947  -0.042669  -0.038536   0.002067
     6  C   -0.064694   0.006820   0.003158  -0.008869   0.364298  -0.057103
     7  C   -0.004554  -0.000157  -0.000075  -0.000218  -0.038597   0.374080
     8  O   -0.000166   0.000000   0.000000   0.000001  -0.001342  -0.033240
     9  N   -0.000162  -0.003554   0.001461  -0.050115  -0.000366  -0.000001
    10  C   -0.000008   0.001012  -0.000055   0.001132  -0.000041   0.000000
    11  N    0.000000  -0.000039   0.000000  -0.000015   0.000000   0.000000
    12  O   -0.000001   0.000054  -0.000001   0.000034  -0.000011   0.000000
    13  C   -0.000009   0.000278   0.000620  -0.000446  -0.000003   0.000000
    14  C    0.000000  -0.000123   0.000010   0.000186   0.000000   0.000000
    15  C    0.000000   0.000000  -0.000002   0.000001   0.000000   0.000000
    16  C    0.000000   0.000014  -0.000001   0.000002   0.000000   0.000000
    17  O    0.000000   0.000000   0.000000   0.000000   0.000000   0.000000
    18  H   -0.001327   0.000060   0.000777   0.000002  -0.000085   0.000003
    19  H    0.548262  -0.001869   0.002602   0.000021   0.003788  -0.000045
    20  H   -0.001869   0.454420  -0.009159   0.002759   0.000088   0.000002
    21  H    0.002602  -0.009159   0.498932   0.002162   0.000932   0.000001
    22  H    0.000021   0.002759   0.002162   0.535100   0.016370  -0.000014
    23  H    0.003788   0.000088   0.000932   0.016370   0.553938  -0.003436
    24  H   -0.000045   0.000002   0.000001  -0.000014  -0.003436   0.534307
    25  H    0.004663   0.000007  -0.000002   0.000007   0.003513  -0.035740
    26  H    0.000134   0.000000  -0.000001   0.000002   0.006092  -0.000813
    27  H    0.000000   0.000001   0.000000   0.000001   0.000000   0.000000
    28  H   -0.000001  -0.000017   0.000995   0.000034  -0.000003   0.000000
    29  H    0.000000   0.000000   0.000000  -0.000001   0.000000   0.000000
    30  H    0.000000   0.000000  -0.000002   0.000002   0.000000   0.000000
    31  H    0.000000   0.000000   0.000000   0.000000   0.000000   0.000000
             25         26         27         28         29         30
     1  O    0.000102   0.003059   0.000000  -0.000001   0.000000   0.000000
     2  C   -0.009575  -0.001747   0.000000  -0.000003   0.000000   0.000000
     3  C   -0.000127   0.000061   0.000001  -0.000482   0.000000  -0.000002
     4  C   -0.000216  -0.000024  -0.000009  -0.001131   0.000001  -0.000003
     5  O    0.002128   0.000067   0.000001   0.000033   0.000000   0.000000
     6  C   -0.055751  -0.007815   0.000000  -0.000003   0.000000   0.000000
     7  C    0.380489  -0.059994   0.000000   0.000000   0.000000   0.000000
     8  O   -0.034111   0.268162   0.000000   0.000000   0.000000   0.000000
     9  N    0.000000   0.000000   0.002045  -0.030730  -0.000008   0.000071
    10  C    0.000000   0.000000  -0.020264   0.000709   0.000000  -0.000011
    11  N    0.000000   0.000000   0.321456  -0.000022  -0.000016   0.000001
    12  O    0.000000   0.000000   0.000512  -0.000029   0.000000   0.000000
    13  C    0.000000   0.000000  -0.000805   0.378902   0.000314  -0.006305
    14  C    0.000000   0.000000   0.005166  -0.031509  -0.053099  -0.062587
    15  C    0.000000   0.000000  -0.000026  -0.000793   0.387762   0.376040
    16  C    0.000000   0.000000  -0.019840   0.002716  -0.001965   0.006441
    17  O    0.000000   0.000000   0.000408  -0.000017   0.000206   0.000248
    18  H   -0.000003  -0.000029   0.000000   0.000000   0.000000   0.000000
    19  H    0.004663   0.000134   0.000000  -0.000001   0.000000   0.000000
    20  H    0.000007   0.000000   0.000001  -0.000017   0.000000   0.000000
    21  H   -0.000002  -0.000001   0.000000   0.000995   0.000000  -0.000002
    22  H    0.000007   0.000002   0.000001   0.000034  -0.000001   0.000002
    23  H    0.003513   0.006092   0.000000  -0.000003   0.000000   0.000000
    24  H   -0.035740  -0.000813   0.000000   0.000000   0.000000   0.000000
    25  H    0.518239   0.005472   0.000000   0.000000   0.000000   0.000000
    26  H    0.005472   0.411093   0.000000   0.000000   0.000000   0.000000
    27  H    0.000000   0.000000   0.290418   0.000004   0.000001   0.000001
    28  H    0.000000   0.000000   0.000004   0.396125   0.000023   0.002225
    29  H    0.000000   0.000000   0.000001   0.000023   0.482251  -0.028100
    30  H    0.000000   0.000000   0.000001   0.002225  -0.028100   0.557368
    31  H    0.000000   0.000000   0.000000   0.000034  -0.016316  -0.024628
             31
     1  O    0.000000
     2  C    0.000000
     3  C    0.000000
     4  C    0.000001
     5  O    0.000000
     6  C    0.000000
     7  C    0.000000
     8  O    0.000000
     9  N   -0.000022
    10  C   -0.000002
    11  N    0.000057
    12  O    0.000000
    13  C    0.002265
    14  C   -0.056546
    15  C    0.386741
    16  C   -0.002422
    17  O    0.004539
    18  H    0.000000
    19  H    0.000000
    20  H    0.000000
    21  H    0.000000
    22  H    0.000000
    23  H    0.000000
    24  H    0.000000
    25  H    0.000000
    26  H    0.000000
    27  H    0.000000
    28  H    0.000034
    29  H   -0.016316
    30  H   -0.024628
    31  H    0.457807
 Mulliken atomic charges:
              1
     1  O   -0.765000
     2  C    0.225438
     3  C   -0.469789
     4  C    0.473339
     5  O   -0.623369
     6  C   -0.009909
     7  C   -0.042369
     8  O   -0.676381
     9  N   -1.133304
    10  C    1.268544
    11  N   -1.081598
    12  O   -0.625484
    13  C    0.291666
    14  C   -0.329673
    15  C   -0.533613
    16  C    0.965826
    17  O   -0.639318
    18  H    0.407234
    19  H    0.218320
    20  H    0.251932
    21  H    0.217192
    22  H    0.226018
    23  H    0.211277
    24  H    0.215285
    25  H    0.220905
    26  H    0.376278
    27  H    0.420930
    28  H    0.282942
    29  H    0.228948
    30  H    0.179242
    31  H    0.248491
 Sum of Mulliken atomic charges =   0.00000
 Mulliken charges with hydrogens summed into heavy atoms:
              1
     1  O   -0.357766
     2  C    0.443758
     3  C   -0.000665
     4  C    0.699357
     5  O   -0.623369
     6  C    0.201368
     7  C    0.393821
     8  O   -0.300102
     9  N   -1.133304
    10  C    1.268544
    11  N   -0.660668
    12  O   -0.625484
    13  C    0.574608
    14  C   -0.329673
    15  C    0.123069
    16  C    0.965826
    17  O   -0.639318
 Sum of Mulliken charges with hydrogens summed into heavy atoms =   0.00000
 Electronic spatial extent (au):  <R**2>=           5039.4922
 Charge=              0.0000 electrons
 Dipole moment (field-independent basis, Debye):
    X=              1.9185    Y=              5.7547    Z=             -0.8211  Tot=              6.1214
 Quadrupole moment (field-independent basis, Debye-Ang):
   XX=           -135.9124   YY=            -96.6225   ZZ=            -92.9171
   XY=              3.6316   XZ=              0.3219   YZ=              1.0103
 Traceless Quadrupole moment (field-independent basis, Debye-Ang):
   XX=            -27.4284   YY=             11.8615   ZZ=             15.5669
   XY=              3.6316   XZ=              0.3219   YZ=              1.0103
 Octapole moment (field-independent basis, Debye-Ang**2):
  XXX=             78.6557  YYY=             19.9131  ZZZ=              4.1704  XYY=              4.0617
  XXY=             27.8302  XXZ=            -20.0030  XZZ=             28.1707  YZZ=              3.2489
  YYZ=              8.6534  XYZ=             11.8219
 Hexadecapole moment (field-independent basis, Debye-Ang**3):
 XXXX=          -6713.9120 YYYY=           -894.4300 ZZZZ=           -230.7986 XXXY=             40.0251
 XXXZ=            -26.2773 YYYX=            125.7562 YYYZ=             26.0867 ZZZX=            -11.1968
 ZZZY=              7.2452 XXYY=           -876.1391 XXZZ=           -799.9153 YYZZ=           -180.3845
 XXYZ=              7.0076 YYXZ=             22.5602 ZZXY=             37.6199
 N-N= 1.300320732421D+03 E-N=-4.631382448684D+03  KE= 8.644780983489D+02
 Calling FoFJK, ICntrl=      2127 FMM=F ISym2X=0 I1Cent= 0 IOpClX= 0 NMat=1 NMatS=1 NMatT=0.
 ***** Axes restored to original set *****
 -------------------------------------------------------------------
 Center     Atomic                   Forces (Hartrees/Bohr)
 Number     Number              X              Y              Z
 -------------------------------------------------------------------
      1        8          -0.069936519    0.105901416    0.097471457
      2        6           0.032223018   -0.068997099    0.019673878
      3        6           0.018113349    0.001530818   -0.012312322
      4        6           0.039233540    0.008661768   -0.011092418
      5        8          -0.019992665   -0.009349503    0.043069472
      6        6          -0.023837207    0.011480755    0.012110328
      7        6           0.011551248   -0.055905413    0.006369942
      8        8          -0.015055697    0.047635663   -0.015549045
      9        7           0.038917368    0.015866765    0.002263125
     10        6          -0.087767219   -0.064228336    0.063145094
     11        7          -0.000910935   -0.006165989    0.004423277
     12        8           0.035806397   -0.001385966   -0.003747355
     13        6           0.074100693    0.022833993   -0.023706695
     14        6          -0.075267015    0.064359325   -0.047648224
     15        6          -0.011434080    0.010741338   -0.016269891
     16        6           0.107236109   -0.048553905    0.036298536
     17        8          -0.040400654   -0.003993238    0.005904742
     18        1           0.014842328   -0.029238228   -0.154513048
     19        1           0.002286554    0.010504145    0.002828654
     20        1           0.000816049    0.016176307   -0.000606760
     21        1          -0.007336826   -0.013168603   -0.006311874
     22        1           0.004655517   -0.011828478   -0.005910115
     23        1          -0.012554031   -0.009410429   -0.010886229
     24        1           0.004250554    0.005788585   -0.002526137
     25        1           0.000645757    0.026907760    0.013837924
     26        1          -0.016918351   -0.025717119   -0.001579740
     27        1          -0.008220552    0.025602763   -0.021306644
     28        1          -0.009801431   -0.015112002    0.014409584
     29        1           0.001217384   -0.016599994   -0.008025975
     30        1           0.011891223   -0.006981602    0.011250719
     31        1           0.001646095    0.012644504    0.008935741
 -------------------------------------------------------------------
 Cartesian Forces:  Max     0.154513048 RMS     0.037229279

 GradGradGradGradGradGradGradGradGradGradGradGradGradGradGradGradGradGrad
 Berny optimization.
 Internal  Forces:  Max     0.156589417 RMS     0.021604972
 Search for a local minimum.
 Step number   1 out of a maximum of  183
 All quantities printed in internal units (Hartrees-Bohrs-Radians)
 Mixed Optimization -- RFO/linear search
 Second derivative matrix not updated -- first step.
 ITU=  0
     Eigenvalues ---    0.00619   0.00741   0.00780   0.01313   0.01683
     Eigenvalues ---    0.01750   0.01777   0.01969   0.02269   0.02316
     Eigenvalues ---    0.02349   0.02415   0.02430   0.02452   0.02468
     Eigenvalues ---    0.02976   0.03323   0.04223   0.04374   0.05159
     Eigenvalues ---    0.05343   0.05386   0.05794   0.05940   0.06089
     Eigenvalues ---    0.06266   0.06447   0.06623   0.07163   0.07999
     Eigenvalues ---    0.08003   0.08183   0.08780   0.11307   0.11749
     Eigenvalues ---    0.13761   0.14023   0.15476   0.16000   0.16000
     Eigenvalues ---    0.16000   0.16000   0.16000   0.16000   0.16000
     Eigenvalues ---    0.18618   0.20465   0.21965   0.23000   0.23960
     Eigenvalues ---    0.25000   0.25000   0.25000   0.25000   0.25000
     Eigenvalues ---    0.28198   0.28445   0.30648   0.30976   0.32177
     Eigenvalues ---    0.32397   0.32490   0.33032   0.33111   0.33272
     Eigenvalues ---    0.33274   0.33788   0.33867   0.34317   0.34556
     Eigenvalues ---    0.35333   0.40572   0.41189   0.41735   0.46415
     Eigenvalues ---    0.46699   0.47527   0.48080   0.48555   0.51395
     Eigenvalues ---    0.53101   0.55576   0.56529   0.66394   0.81909
     Eigenvalues ---    0.86175   0.87617
 RFO step:  Lambda=-1.35240752D-01 EMin= 6.18842830D-03
 Linear search not attempted -- first point.
 Maximum step size (   0.300) exceeded in Quadratic search.
    -- Step size scaled by   0.612
 Iteration  1 RMS(Cart)=  0.06029396 RMS(Int)=  0.00099950
 Iteration  2 RMS(Cart)=  0.00150799 RMS(Int)=  0.00016654
 Iteration  3 RMS(Cart)=  0.00000207 RMS(Int)=  0.00016653
 Iteration  4 RMS(Cart)=  0.00000000 RMS(Int)=  0.00016653
 Variable       Old X    -DE/DX   Delta X   Delta X   Delta X     New X
                                 (Linear)    (Quad)   (Total)
    R1        2.46212   0.10741   0.00000   0.08224   0.08224   2.54436
    R2        1.61447   0.15659   0.00000   0.09610   0.09610   1.71058
    R3        2.88230   0.03803   0.00000   0.05061   0.05071   2.93301
    R4        2.85822   0.02095   0.00000   0.02707   0.02685   2.88507
    R5        2.08576  -0.01086   0.00000  -0.01421  -0.01421   2.07155
    R6        2.86067   0.03178   0.00000   0.04430   0.04457   2.90523
    R7        2.07689  -0.01457   0.00000  -0.01884  -0.01884   2.05804
    R8        2.06402  -0.00838   0.00000  -0.01066  -0.01066   2.05336
    R9        2.57893   0.05194   0.00000   0.05114   0.05121   2.63015
   R10        2.69969   0.04366   0.00000   0.04883   0.04883   2.74851
   R11        2.08857  -0.01243   0.00000  -0.01630  -0.01630   2.07226
   R12        2.66168   0.04226   0.00000   0.04518   0.04495   2.70663
   R13        2.83257   0.01450   0.00000   0.01928   0.01928   2.85185
   R14        2.08995  -0.01207   0.00000  -0.01586  -0.01586   2.07409
   R15        2.63351   0.04184   0.00000   0.04251   0.04251   2.67602
   R16        2.05137  -0.00269   0.00000  -0.00337  -0.00337   2.04800
   R17        2.13389  -0.02948   0.00000  -0.04084  -0.04084   2.09305
   R18        1.88554  -0.02923   0.00000  -0.02903  -0.02903   1.85651
   R19        2.52912   0.05610   0.00000   0.04878   0.04886   2.57798
   R20        2.54541   0.03718   0.00000   0.03263   0.03250   2.57791
   R21        2.57593   0.01181   0.00000   0.01174   0.01196   2.58789
   R22        2.34051  -0.02907   0.00000  -0.01758  -0.01758   2.32293
   R23        2.54709   0.02628   0.00000   0.02354   0.02368   2.57077
   R24        1.95962  -0.03409   0.00000  -0.03774  -0.03774   1.92188
   R25        2.59537  -0.04000   0.00000  -0.03911  -0.03933   2.55604
   R26        2.07555  -0.01971   0.00000  -0.02545  -0.02545   2.05010
   R27        2.83822   0.00431   0.00000   0.00577   0.00577   2.84398
   R28        2.58610   0.07252   0.00000   0.06795   0.06786   2.65396
   R29        2.08573  -0.01528   0.00000  -0.01998  -0.01998   2.06575
   R30        2.10123  -0.01670   0.00000  -0.02225  -0.02225   2.07899
   R31        2.06798  -0.01118   0.00000  -0.01430  -0.01430   2.05368
   R32        2.36902  -0.03572   0.00000  -0.02290  -0.02290   2.34612
    A1        2.25701  -0.03302   0.00000  -0.06844  -0.06844   2.18857
    A2        1.96504   0.01247   0.00000   0.03206   0.03229   1.99732
    A3        1.96437  -0.00928   0.00000  -0.01819  -0.01837   1.94600
    A4        1.98938   0.00126   0.00000   0.00102   0.00081   1.99020
    A5        1.77414   0.00563   0.00000   0.00695   0.00661   1.78075
    A6        1.88646  -0.00789   0.00000  -0.01585  -0.01576   1.87070
    A7        1.86952  -0.00240   0.00000  -0.00705  -0.00694   1.86259
    A8        1.76351   0.01194   0.00000   0.02069   0.02063   1.78413
    A9        1.93632  -0.00490   0.00000  -0.00746  -0.00736   1.92896
   A10        1.96753  -0.00239   0.00000  -0.00622  -0.00674   1.96079
   A11        1.90141  -0.00400   0.00000  -0.00956  -0.00956   1.89184
   A12        1.88239   0.00322   0.00000   0.01858   0.01867   1.90106
   A13        1.99616  -0.00199   0.00000  -0.01127  -0.01132   1.98484
   A14        1.79537  -0.01124   0.00000  -0.01176  -0.01254   1.78283
   A15        1.89293   0.02394   0.00000   0.04672   0.04670   1.93963
   A16        1.96250  -0.00969   0.00000  -0.02465  -0.02460   1.93790
   A17        2.02584   0.00521   0.00000   0.01250   0.01217   2.03801
   A18        1.90014  -0.00030   0.00000  -0.00726  -0.00741   1.89273
   A19        1.88792  -0.00822   0.00000  -0.01614  -0.01578   1.87215
   A20        1.74209   0.01526   0.00000   0.04081   0.04061   1.78270
   A21        1.75752  -0.00093   0.00000   0.00417   0.00381   1.76134
   A22        1.96087   0.01599   0.00000   0.03052   0.03097   1.99184
   A23        1.95296  -0.01202   0.00000  -0.03012  -0.03018   1.92279
   A24        1.95973  -0.00688   0.00000  -0.01282  -0.01288   1.94685
   A25        1.85149   0.00726   0.00000   0.01710   0.01720   1.86869
   A26        1.96785  -0.00383   0.00000  -0.00870  -0.00862   1.95923
   A27        1.87499   0.01914   0.00000   0.03367   0.03362   1.90861
   A28        1.99891  -0.01316   0.00000  -0.02773  -0.02764   1.97127
   A29        1.85626   0.00267   0.00000   0.00939   0.00922   1.86548
   A30        1.99664  -0.00497   0.00000  -0.00862  -0.00843   1.98821
   A31        1.85064  -0.00447   0.00000  -0.00394  -0.00430   1.84634
   A32        1.87580   0.00145   0.00000  -0.00057  -0.00058   1.87523
   A33        1.88349   0.01840   0.00000   0.03813   0.03813   1.92162
   A34        2.19275   0.00243   0.00000   0.00403   0.00404   2.19679
   A35        2.04615  -0.01910   0.00000  -0.03016  -0.03015   2.01601
   A36        2.04428   0.01667   0.00000   0.02614   0.02610   2.07038
   A37        2.11627  -0.03953   0.00000  -0.06148  -0.06118   2.05509
   A38        2.06984   0.04459   0.00000   0.07017   0.07001   2.13985
   A39        2.09707  -0.00506   0.00000  -0.00868  -0.00884   2.08823
   A40        2.11904   0.03158   0.00000   0.05528   0.05561   2.17464
   A41        2.07530  -0.01959   0.00000  -0.03552  -0.03568   2.03962
   A42        2.08884  -0.01199   0.00000  -0.01976  -0.01993   2.06892
   A43        2.15619   0.00754   0.00000   0.01029   0.00996   2.16615
   A44        2.10957  -0.01619   0.00000  -0.03089  -0.03073   2.07884
   A45        2.01742   0.00866   0.00000   0.02061   0.02077   2.03819
   A46        2.12062   0.00576   0.00000   0.01068   0.01084   2.13146
   A47        2.05826   0.00252   0.00000   0.00094   0.00063   2.05889
   A48        2.10430  -0.00828   0.00000  -0.01162  -0.01147   2.09283
   A49        1.94890  -0.00081   0.00000  -0.00331  -0.00336   1.94553
   A50        1.85985   0.01117   0.00000   0.02620   0.02602   1.88587
   A51        1.89506   0.00639   0.00000   0.01158   0.01143   1.90648
   A52        1.86635  -0.00092   0.00000   0.00120   0.00111   1.86746
   A53        2.00285  -0.01147   0.00000  -0.02911  -0.02913   1.97371
   A54        1.88430  -0.00292   0.00000  -0.00264  -0.00294   1.88136
   A55        2.07233  -0.01877   0.00000  -0.03116  -0.03112   2.04121
   A56        2.14877  -0.01451   0.00000  -0.02237  -0.02239   2.12638
   A57        2.06208   0.03328   0.00000   0.05353   0.05351   2.11560
    D1        1.15598  -0.00153   0.00000   0.00097   0.00134   1.15731
    D2       -3.13443   0.00760   0.00000   0.01862   0.01833  -3.11610
    D3       -1.00089  -0.00196   0.00000  -0.00437  -0.00444  -1.00533
    D4        2.15157  -0.00053   0.00000   0.00258   0.00272   2.15429
    D5       -2.11763  -0.00088   0.00000  -0.00063  -0.00057  -2.11820
    D6        0.14687  -0.00987   0.00000  -0.02783  -0.02768   0.11919
    D7        0.04574   0.00101   0.00000   0.00437   0.00444   0.05018
    D8        2.05973   0.00066   0.00000   0.00117   0.00115   2.06087
    D9       -1.95896  -0.00833   0.00000  -0.02604  -0.02597  -1.98492
   D10       -1.91858   0.00404   0.00000   0.01484   0.01491  -1.90368
   D11        0.09540   0.00369   0.00000   0.01164   0.01162   0.10702
   D12        2.35990  -0.00530   0.00000  -0.01557  -0.01549   2.34441
   D13       -2.70850  -0.00510   0.00000  -0.00703  -0.00676  -2.71526
   D14        1.48613  -0.00373   0.00000  -0.00821  -0.00821   1.47792
   D15       -0.74815  -0.00175   0.00000   0.00346   0.00354  -0.74461
   D16       -0.60221   0.00859   0.00000   0.02638   0.02646  -0.57575
   D17       -2.69076   0.00997   0.00000   0.02520   0.02500  -2.66575
   D18        1.35815   0.01194   0.00000   0.03687   0.03675   1.39490
   D19        1.37483   0.00139   0.00000   0.00928   0.00936   1.38419
   D20       -0.71372   0.00277   0.00000   0.00810   0.00790  -0.70582
   D21       -2.94800   0.00474   0.00000   0.01977   0.01965  -2.92835
   D22        0.54805  -0.01412   0.00000  -0.03825  -0.03807   0.50999
   D23        2.70302  -0.00241   0.00000  -0.00708  -0.00701   2.69601
   D24       -1.49320  -0.00274   0.00000  -0.01139  -0.01159  -1.50479
   D25       -1.49175  -0.01280   0.00000  -0.03609  -0.03587  -1.52763
   D26        0.66322  -0.00108   0.00000  -0.00491  -0.00482   0.65840
   D27        2.75018  -0.00141   0.00000  -0.00923  -0.00940   2.74078
   D28        2.61548  -0.00989   0.00000  -0.02811  -0.02776   2.58771
   D29       -1.51274   0.00182   0.00000   0.00307   0.00329  -1.50945
   D30        0.57422   0.00149   0.00000  -0.00125  -0.00129   0.57294
   D31       -0.96595   0.01849   0.00000   0.04869   0.04858  -0.91736
   D32       -3.02978  -0.00605   0.00000  -0.00731  -0.00717  -3.03695
   D33        1.11914   0.00134   0.00000   0.01089   0.01096   1.13010
   D34       -1.91223  -0.00099   0.00000  -0.00542  -0.00562  -1.91785
   D35        1.22937  -0.00096   0.00000  -0.00528  -0.00549   1.22389
   D36        0.09717   0.00460   0.00000   0.01975   0.01998   0.11714
   D37       -3.04442   0.00464   0.00000   0.01990   0.02010  -3.02431
   D38        2.23786   0.00137   0.00000   0.00621   0.00621   2.24407
   D39       -0.90372   0.00141   0.00000   0.00636   0.00634  -0.89738
   D40        0.98541  -0.01163   0.00000  -0.03485  -0.03529   0.95012
   D41        3.07478   0.00345   0.00000  -0.00248  -0.00270   3.07208
   D42       -1.05154  -0.00060   0.00000  -0.00955  -0.00977  -1.06132
   D43       -1.17591   0.00352   0.00000   0.01423   0.01394  -1.16196
   D44        2.86879   0.00430   0.00000   0.01892   0.01884   2.88763
   D45        0.79969   0.00835   0.00000   0.02940   0.02937   0.82906
   D46        3.14083  -0.00093   0.00000  -0.00184  -0.00184   3.13899
   D47        0.90234  -0.00015   0.00000   0.00284   0.00306   0.90540
   D48       -1.16676   0.00390   0.00000   0.01333   0.01359  -1.15317
   D49        1.05049  -0.00268   0.00000  -0.00864  -0.00883   1.04166
   D50       -1.18800  -0.00190   0.00000  -0.00395  -0.00393  -1.19192
   D51        3.02609   0.00215   0.00000   0.00653   0.00660   3.03269
   D52       -0.72633   0.00452   0.00000   0.01122   0.01121  -0.71512
   D53        1.51346  -0.00100   0.00000  -0.00451  -0.00450   1.50896
   D54       -2.70572  -0.00504   0.00000  -0.01277  -0.01278  -2.71850
   D55       -3.14145  -0.00015   0.00000  -0.00057  -0.00057   3.14116
   D56       -0.00002   0.00100   0.00000   0.00387   0.00395   0.00393
   D57        0.00013  -0.00019   0.00000  -0.00071  -0.00070  -0.00057
   D58        3.14156   0.00097   0.00000   0.00372   0.00382  -3.13781
   D59        3.14151   0.00003   0.00000   0.00014   0.00020  -3.14148
   D60       -0.00009   0.00031   0.00000   0.00120   0.00121   0.00112
   D61       -0.00007   0.00007   0.00000   0.00028   0.00032   0.00024
   D62        3.14151   0.00035   0.00000   0.00134   0.00133  -3.14034
   D63       -0.00015   0.00030   0.00000   0.00113   0.00112   0.00097
   D64        3.14152   0.00033   0.00000   0.00126   0.00122  -3.14044
   D65       -3.14158  -0.00088   0.00000  -0.00338  -0.00327   3.13833
   D66        0.00010  -0.00084   0.00000  -0.00325  -0.00317  -0.00308
   D67        0.00011  -0.00027   0.00000  -0.00105  -0.00105  -0.00093
   D68       -3.14150   0.00004   0.00000   0.00012   0.00008  -3.14142
   D69       -3.14157  -0.00031   0.00000  -0.00118  -0.00115   3.14047
   D70        0.00000   0.00000   0.00000  -0.00001  -0.00002  -0.00001
   D71        3.14159   0.00028   0.00000   0.00111   0.00110  -3.14050
   D72        0.00004  -0.00005   0.00000  -0.00023  -0.00025  -0.00022
   D73        0.00000   0.00002   0.00000   0.00010   0.00010   0.00010
   D74       -3.14155  -0.00032   0.00000  -0.00124  -0.00125   3.14039
   D75        1.75269   0.00547   0.00000   0.01656   0.01660   1.76928
   D76       -0.27939   0.00039   0.00000   0.00138   0.00147  -0.27792
   D77       -2.30510  -0.00518   0.00000  -0.01489  -0.01500  -2.32010
   D78       -1.38895   0.00581   0.00000   0.01795   0.01797  -1.37098
   D79        2.86216   0.00074   0.00000   0.00277   0.00285   2.86501
   D80        0.83645  -0.00483   0.00000  -0.01350  -0.01362   0.82282
   D81       -0.00005   0.00015   0.00000   0.00061   0.00058   0.00053
   D82        3.14156  -0.00014   0.00000  -0.00051  -0.00054   3.14102
   D83        3.14158  -0.00018   0.00000  -0.00073  -0.00074   3.14084
   D84        0.00001  -0.00047   0.00000  -0.00185  -0.00186  -0.00185
         Item               Value     Threshold  Converged?
 Maximum Force            0.156589     0.000450     NO 
 RMS     Force            0.021605     0.000300     NO 
 Maximum Displacement     0.321950     0.001800     NO 
 RMS     Displacement     0.059901     0.001200     NO 
 Predicted change in Energy=-6.468689D-02
 GradGradGradGradGradGradGradGradGradGradGradGradGradGradGradGradGradGrad

                          Input orientation:                          
 ---------------------------------------------------------------------
 Center     Atomic      Atomic             Coordinates (Angstroms)
 Number     Number       Type             X           Y           Z
 ---------------------------------------------------------------------
      1          8           0       -2.812032    0.843026   -2.169422
      2          6           0       -2.278614    0.002243   -1.263118
      3          6           0       -0.727087   -0.039190   -1.260801
      4          6           0       -0.394046    0.320321    0.196383
      5          8           0       -1.506911   -0.162310    0.878835
      6          6           0       -2.587118    0.448772    0.163869
      7          6           0       -3.926773   -0.016652    0.679798
      8          8           0       -4.958464    0.616767   -0.054846
      9          7           0        0.898876   -0.219149    0.587216
     10          6           0        1.105658   -1.241663    1.466290
     11          7           0        2.398922   -1.617842    1.713989
     12          8           0        0.183444   -1.827993    2.029112
     13          6           0        1.982127    0.371638    0.005405
     14          6           0        3.263166    0.008395    0.243133
     15          6           0        4.425932    0.692921   -0.423454
     16          6           0        3.492999   -1.042746    1.145717
     17          8           0        4.644568   -1.425612    1.407742
     18          1           0       -2.760229    0.746902   -3.068010
     19          1           0       -2.630072   -1.032229   -1.352779
     20          1           0       -0.371877   -1.050196   -1.455135
     21          1           0       -0.292836    0.710374   -1.916746
     22          1           0       -0.347863    1.407407    0.332871
     23          1           0       -2.460745    1.535126    0.256100
     24          1           0       -4.025028    0.087061    1.754096
     25          1           0       -4.006016   -1.095462    0.441777
     26          1           0       -4.731868    1.559916   -0.210680
     27          1           0        2.537477   -2.382036    2.370591
     28          1           0        1.826809    1.186299   -0.693980
     29          1           0        4.908024    1.407920    0.248360
     30          1           0        4.039202    1.266041   -1.279204
     31          1           0        5.110478   -0.058048   -0.808806
 ---------------------------------------------------------------------
                    Distance matrix (angstroms):
                    1          2          3          4          5
     1  O    0.000000
     2  C    1.346417   0.000000
     3  C    2.439445   1.552082   0.000000
     4  C    3.422997   2.404769   1.537384   0.000000
     5  O    3.464955   2.282667   2.280642   1.391813   0.000000
     6  C    2.377030   1.526714   2.393221   2.197071   1.432287
     7  C    3.178011   2.547883   3.742248   3.581536   2.432399
     8  O    3.021555   3.003191   4.448501   4.580929   3.659500
     9  N    4.743217   3.683639   2.468058   1.454451   2.424064
    10  C    5.736953   4.522198   3.498846   2.510293   2.887148
    11  N    6.949158   5.776434   4.594937   3.722939   4.251069
    12  O    5.808177   4.500031   3.853883   2.882299   2.637221
    13  C    5.285456   4.460888   3.018593   2.384388   3.636120
    14  C    6.589770   5.742836   4.264529   3.670788   4.815277
    15  C    7.447084   6.792129   5.271693   4.873932   6.134004
    16  C    7.368833   6.340821   4.960603   4.227092   5.083846
    17  O    8.575763   7.556634   6.156133   5.468391   6.302092
    18  H    0.905198   2.010996   2.831538   4.054263   4.239700
    19  H    2.053436   1.096218   2.148473   3.037944   2.645439
    20  H    3.169993   2.186354   1.089070   2.146234   2.743002
    21  H    2.535309   2.207260   1.086593   2.151209   3.170305
    22  H    3.556983   2.872189   2.185463   1.096594   2.026199
    23  H    2.546677   2.165854   2.790166   2.398033   2.044233
    24  H    4.175744   3.487225   4.470118   3.957892   2.677532
    25  H    3.464346   2.663746   3.842636   3.887285   2.703205
    26  H    2.834850   3.090700   4.438262   4.529790   3.814899
    27  H    7.722046   6.487169   5.416024   4.541337   4.848669
    28  H    4.879919   4.310500   2.888857   2.544574   3.925071
    29  H    8.109504   7.477184   6.010506   5.412719   6.634344
    30  H    6.921765   6.443000   4.941809   4.767119   6.120187
    31  H    8.088843   7.403291   5.855068   5.608328   6.829995
                    6          7          8          9         10
     6  C    0.000000
     7  C    1.509132   0.000000
     8  O    2.387330   1.416090   0.000000
     9  N    3.574562   4.830783   5.951423   0.000000
    10  C    4.265028   5.238758   6.522362   1.364208   0.000000
    11  N    5.615546   6.606646   7.890082   2.340106   1.369451
    12  O    4.042129   4.689934   6.062916   2.275805   1.229240
    13  C    4.572643   5.959923   6.945181   1.364173   2.346300
    14  C    5.867370   7.203230   8.249492   2.400007   2.777336
    15  C    7.041834   8.455078   9.391942   3.780668   4.282285
    16  C    6.336913   7.504862   8.696124   2.778436   2.416967
[...]
 Alpha virt. eigenvalues --    1.22412   1.23428   1.28368   1.30429   1.32297
 Alpha virt. eigenvalues --    1.34412   1.34820   1.36282   1.38040   1.39466
 Alpha virt. eigenvalues --    1.41108   1.42551   1.44268   1.45264   1.48413
 Alpha virt. eigenvalues --    1.53127   1.53677   1.56111   1.56543   1.59581
 Alpha virt. eigenvalues --    1.61881   1.62761   1.65044   1.67829   1.69614
 Alpha virt. eigenvalues --    1.72384   1.73891   1.74738   1.77680   1.78361
 Alpha virt. eigenvalues --    1.79701   1.80258   1.81377   1.83078   1.83838
 Alpha virt. eigenvalues --    1.84793   1.85222   1.86499   1.87649   1.88680
 Alpha virt. eigenvalues --    1.88920   1.90051   1.92351   1.93588   1.96124
 Alpha virt. eigenvalues --    1.97286   1.97896   1.98000   2.01166   2.01764
 Alpha virt. eigenvalues --    2.02755   2.04670   2.05947   2.08275   2.10242
 Alpha virt. eigenvalues --    2.10938   2.13359   2.13896   2.16252   2.17549
 Alpha virt. eigenvalues --    2.20145   2.22568   2.24426   2.28867   2.30524
 Alpha virt. eigenvalues --    2.31536   2.32665   2.34170   2.34530   2.35296
 Alpha virt. eigenvalues --    2.37250   2.40006   2.42308   2.43840   2.45450
 Alpha virt. eigenvalues --    2.48373   2.49350   2.51545   2.52254   2.54475
 Alpha virt. eigenvalues --    2.59102   2.60347   2.62304   2.63965   2.65074
 Alpha virt. eigenvalues --    2.65570   2.68802   2.73262   2.76886   2.78810
 Alpha virt. eigenvalues --    2.81748   2.82614   2.86874   2.87759   2.92388
 Alpha virt. eigenvalues --    2.94201   2.98472   3.01073   3.03350   3.06365
 Alpha virt. eigenvalues --    3.25134   3.39806   3.79509   3.83792   3.97976
 Alpha virt. eigenvalues --    3.98500   4.04627   4.11665   4.15310   4.21995
 Alpha virt. eigenvalues --    4.22797   4.30849   4.32940   4.46343   4.47481
 Alpha virt. eigenvalues --    4.56463   4.65732   4.68484   4.70591
          Condensed to atoms (all electrons):
              1          2          3          4          5          6
     1  O    8.282173   0.193055  -0.040041   0.002672   0.001287  -0.035364
     2  C    0.193055   4.928672   0.348955  -0.050715  -0.036262   0.334054
     3  C   -0.040041   0.348955   5.309874   0.305126  -0.057762  -0.078208
     4  C    0.002672  -0.050715   0.305126   4.671663   0.259094  -0.036207
     5  O    0.001287  -0.036262  -0.057762   0.259094   8.313581   0.180428
     6  C   -0.035364   0.334054  -0.078208  -0.036207   0.180428   4.940697
     7  C   -0.000742  -0.022731   0.005232   0.003926  -0.028426   0.363775
     8  O   -0.006868  -0.000721   0.000055  -0.000065   0.001344  -0.030557
     9  N   -0.000022  -0.001968  -0.020185   0.252834  -0.071643   0.004173
    10  C    0.000011   0.001104  -0.007819  -0.013142   0.008480  -0.000556
    11  N    0.000000   0.000005  -0.000021   0.002728  -0.000041  -0.000007
    12  O    0.000066  -0.007634   0.001508   0.001429  -0.001952   0.000424
    13  C    0.000000  -0.000005   0.002790  -0.027895   0.002074  -0.000064
    14  C    0.000000   0.000005  -0.000348   0.003789  -0.000242   0.000008
    15  C    0.000000   0.000000   0.000001  -0.000103   0.000000   0.000000
    16  C    0.000000  -0.000001   0.000023   0.000363   0.000030  -0.000001
    17  O    0.000000   0.000000   0.000000   0.000001   0.000000   0.000000
    18  H    0.233589  -0.019228  -0.002359  -0.000165  -0.000090   0.006335
    19  H   -0.035102   0.367426  -0.054007   0.003912   0.001093  -0.041393
    20  H    0.001618  -0.018780   0.354802  -0.022791   0.002031   0.005851
    21  H    0.003702  -0.032944   0.342991  -0.020500   0.002249  -0.003728
    22  H   -0.000033   0.002467  -0.053636   0.388729  -0.044805   0.001389
    23  H    0.005411  -0.068506  -0.006916  -0.002505  -0.035267   0.360726
    24  H   -0.000177   0.006223  -0.000230  -0.000183   0.001152  -0.031606
    25  H    0.000301  -0.016899  -0.000152  -0.000196   0.004796  -0.041811
    26  H    0.031311   0.002187   0.000570  -0.000041   0.000141  -0.011803
    27  H    0.000000   0.000000  -0.000002  -0.000068   0.000004   0.000000
    28  H    0.000000  -0.000007   0.000257  -0.003987   0.000265  -0.000015
    29  H    0.000000   0.000000   0.000000   0.000001   0.000000   0.000000
    30  H    0.000000   0.000000   0.000000   0.000003   0.000000   0.000000
    31  H    0.000000   0.000000   0.000000   0.000002   0.000000   0.000000
              7          8          9         10         11         12
     1  O   -0.000742  -0.006868  -0.000022   0.000011   0.000000   0.000066
     2  C   -0.022731  -0.000721  -0.001968   0.001104   0.000005  -0.007634
     3  C    0.005232   0.000055  -0.020185  -0.007819  -0.000021   0.001508
     4  C    0.003926  -0.000065   0.252834  -0.013142   0.002728   0.001429
     5  O   -0.028426   0.001344  -0.071643   0.008480  -0.000041  -0.001952
     6  C    0.363775  -0.030557   0.004173  -0.000556  -0.000007   0.000424
     7  C    4.813409   0.266978  -0.000005  -0.000114   0.000000  -0.000172
     8  O    0.266978   8.243405   0.000000   0.000000   0.000000   0.000000
     9  N   -0.000005   0.000000   7.175967   0.219873  -0.093217  -0.085305
    10  C   -0.000114   0.000000   0.219873   4.184508   0.259737   0.588922
    11  N    0.000000   0.000000  -0.093217   0.259737   7.371196  -0.083516
    12  O   -0.000172   0.000000  -0.085305   0.588922  -0.083516   8.080828
    13  C    0.000001   0.000000   0.279325  -0.030751  -0.022527   0.001333
    14  C    0.000000   0.000000  -0.018464  -0.004406  -0.092891   0.000385
    15  C    0.000000   0.000000   0.004574   0.000277   0.006409   0.000001
    16  C    0.000000   0.000000  -0.017257  -0.008214   0.181966   0.000574
    17  O    0.000000   0.000000   0.000013   0.001408  -0.095771  -0.000020
    18  H   -0.000209   0.000300  -0.000001  -0.000001   0.000000   0.000003
    19  H   -0.006896  -0.000118  -0.000003   0.000479   0.000076   0.013214
    20  H   -0.000134   0.000001  -0.007639   0.002216  -0.000264   0.004436
    21  H   -0.000060  -0.000004   0.002980   0.000391   0.000006   0.000420
    22  H   -0.000218   0.000002  -0.070070   0.005879  -0.000174   0.000046
    23  H   -0.051719   0.007138  -0.000379   0.000094   0.000000  -0.000017
    24  H    0.372612  -0.039260   0.000004  -0.000003   0.000000   0.000001
    25  H    0.351133  -0.037963  -0.000075   0.000303   0.000000   0.000391
    26  H   -0.035695   0.233528   0.000000   0.000000   0.000000   0.000000
    27  H    0.000000   0.000000   0.004948  -0.013414   0.273413   0.004227
    28  H    0.000000   0.000000  -0.053922   0.002272  -0.000638  -0.000112
    29  H    0.000000   0.000000  -0.000053  -0.000008   0.000041   0.000000
    30  H    0.000000   0.000000   0.000075  -0.000024  -0.000056   0.000000
    31  H    0.000000   0.000000  -0.000057  -0.000002   0.000021   0.000000
             13         14         15         16         17         18
     1  O    0.000000   0.000000   0.000000   0.000000   0.000000   0.233589
     2  C   -0.000005   0.000005   0.000000  -0.000001   0.000000  -0.019228
     3  C    0.002790  -0.000348   0.000001   0.000023   0.000000  -0.002359
     4  C   -0.027895   0.003789  -0.000103   0.000363   0.000001  -0.000165
     5  O    0.002074  -0.000242   0.000000   0.000030   0.000000  -0.000090
     6  C   -0.000064   0.000008   0.000000  -0.000001   0.000000   0.006335
     7  C    0.000001   0.000000   0.000000   0.000000   0.000000  -0.000209
     8  O    0.000000   0.000000   0.000000   0.000000   0.000000   0.000300
     9  N    0.279325  -0.018464   0.004574  -0.017257   0.000013  -0.000001
    10  C   -0.030751  -0.004406   0.000277  -0.008214   0.001408  -0.000001
    11  N   -0.022527  -0.092891   0.006409   0.181966  -0.095771   0.000000
    12  O    0.001333   0.000385   0.000001   0.000574  -0.000020   0.000003
    13  C    4.925679   0.539593  -0.054861  -0.010768   0.004264   0.000000
    14  C    0.539593   5.060248   0.371341   0.307656  -0.098570   0.000000
    15  C   -0.054861   0.371341   5.132279  -0.044680   0.003802   0.000000
    16  C   -0.010768   0.307656  -0.044680   4.379729   0.622625   0.000000
    17  O    0.004264  -0.098570   0.003802   0.622625   8.045927   0.000000
    18  H    0.000000   0.000000   0.000000   0.000000   0.000000   0.382489
    19  H   -0.000013  -0.000001   0.000000   0.000000   0.000000  -0.005418
    20  H    0.000341   0.000019   0.000000  -0.000004   0.000000   0.000738
    21  H   -0.000093   0.000000   0.000000   0.000000   0.000000  -0.000317
    22  H   -0.003292   0.001610  -0.000002  -0.000055   0.000000   0.000004
    23  H   -0.000009   0.000000   0.000000   0.000000   0.000000  -0.000204
    24  H    0.000001   0.000000   0.000000   0.000000   0.000000   0.000013
    25  H   -0.000001   0.000000   0.000000   0.000000   0.000000  -0.000005
    26  H    0.000000   0.000000   0.000000   0.000000   0.000000  -0.000705
    27  H   -0.000219   0.007201  -0.000163  -0.006408   0.006780   0.000000
    28  H    0.356678  -0.028389  -0.006930   0.004083  -0.000069   0.000000
    29  H    0.000337  -0.028443   0.369423  -0.003549   0.002879   0.000000
    30  H   -0.003627  -0.032897   0.360385   0.005155   0.000342   0.000000
    31  H    0.000389  -0.027985   0.368182  -0.003534   0.002894   0.000000
             19         20         21         22         23         24
     1  O   -0.035102   0.001618   0.003702  -0.000033   0.005411  -0.000177
     2  C    0.367426  -0.018780  -0.032944   0.002467  -0.068506   0.006223
     3  C   -0.054007   0.354802   0.342991  -0.053636  -0.006916  -0.000230
     4  C    0.003912  -0.022791  -0.020500   0.388729  -0.002505  -0.000183
     5  O    0.001093   0.002031   0.002249  -0.044805  -0.035267   0.001152
     6  C   -0.041393   0.005851  -0.003728   0.001389   0.360726  -0.031606
     7  C   -0.006896  -0.000134  -0.000060  -0.000218  -0.051719   0.372612
     8  O   -0.000118   0.000001  -0.000004   0.000002   0.007138  -0.039260
     9  N   -0.000003  -0.007639   0.002980  -0.070070  -0.000379   0.000004
    10  C    0.000479   0.002216   0.000391   0.005879   0.000094  -0.000003
    11  N    0.000076  -0.000264   0.000006  -0.000174   0.000000   0.000000
    12  O    0.013214   0.004436   0.000420   0.000046  -0.000017   0.000001
    13  C   -0.000013   0.000341  -0.000093  -0.003292  -0.000009   0.000001
    14  C   -0.000001   0.000019   0.000000   0.001610   0.000000   0.000000
    15  C    0.000000   0.000000   0.000000  -0.000002   0.000000   0.000000
    16  C    0.000000  -0.000004   0.000000  -0.000055   0.000000   0.000000
    17  O    0.000000   0.000000   0.000000   0.000000   0.000000   0.000000
    18  H   -0.005418   0.000738  -0.000317   0.000004  -0.000204   0.000013
    19  H    0.568553  -0.006740   0.006058  -0.000129   0.006132   0.000038
    20  H   -0.006740   0.535078  -0.029986   0.003692  -0.000077   0.000003
    21  H    0.006058  -0.029986   0.574540  -0.007989   0.002410   0.000005
    22  H   -0.000129   0.003692  -0.007989   0.625074   0.002678  -0.000014
    23  H    0.006132  -0.000077   0.002410   0.002678   0.638141  -0.007272
    24  H    0.000038   0.000003   0.000005  -0.000014  -0.007272   0.591007
    25  H    0.006413  -0.000001  -0.000004   0.000024   0.007652  -0.049704
    26  H   -0.000064  -0.000004   0.000001   0.000003  -0.000032   0.005716
    27  H    0.000000   0.000011   0.000000   0.000005   0.000000   0.000000
    28  H    0.000000   0.000038  -0.000057   0.007373   0.000003   0.000000
    29  H    0.000000   0.000000   0.000000   0.000000   0.000000   0.000000
    30  H    0.000000   0.000000   0.000000  -0.000001   0.000000   0.000000
    31  H    0.000000   0.000000   0.000000   0.000000   0.000000   0.000000
             25         26         27         28         29         30
     1  O    0.000301   0.031311   0.000000   0.000000   0.000000   0.000000
     2  C   -0.016899   0.002187   0.000000  -0.000007   0.000000   0.000000
     3  C   -0.000152   0.000570  -0.000002   0.000257   0.000000   0.000000
     4  C   -0.000196  -0.000041  -0.000068  -0.003987   0.000001   0.000003
     5  O    0.004796   0.000141   0.000004   0.000265   0.000000   0.000000
     6  C   -0.041811  -0.011803   0.000000  -0.000015   0.000000   0.000000
     7  C    0.351133  -0.035695   0.000000   0.000000   0.000000   0.000000
     8  O   -0.037963   0.233528   0.000000   0.000000   0.000000   0.000000
     9  N   -0.000075   0.000000   0.004948  -0.053922  -0.000053   0.000075
    10  C    0.000303   0.000000  -0.013414   0.002272  -0.000008  -0.000024
    11  N    0.000000   0.000000   0.273413  -0.000638   0.000041  -0.000056
    12  O    0.000391   0.000000   0.004227  -0.000112   0.000000   0.000000
    13  C   -0.000001   0.000000  -0.000219   0.356678   0.000337  -0.003627
    14  C    0.000000   0.000000   0.007201  -0.028389  -0.028443  -0.032897
    15  C    0.000000   0.000000  -0.000163  -0.006930   0.369423   0.360385
    16  C    0.000000   0.000000  -0.006408   0.004083  -0.003549   0.005155
    17  O    0.000000   0.000000   0.006780  -0.000069   0.002879   0.000342
    18  H   -0.000005  -0.000705   0.000000   0.000000   0.000000   0.000000
    19  H    0.006413  -0.000064   0.000000   0.000000   0.000000   0.000000
    20  H   -0.000001  -0.000004   0.000011   0.000038   0.000000   0.000000
    21  H   -0.000004   0.000001   0.000000  -0.000057   0.000000   0.000000
    22  H    0.000024   0.000003   0.000005   0.007373   0.000000  -0.000001
    23  H    0.007652  -0.000032   0.000000   0.000003   0.000000   0.000000
    24  H   -0.049704   0.005716   0.000000   0.000000   0.000000   0.000000
    25  H    0.643738  -0.001143   0.000000   0.000000   0.000000   0.000000
    26  H   -0.001143   0.368215   0.000000   0.000000   0.000000   0.000000
    27  H    0.000000   0.000000   0.367808   0.000033   0.000000   0.000002
    28  H    0.000000   0.000000   0.000033   0.545069   0.000066   0.005670
    29  H    0.000000   0.000000   0.000000   0.000066   0.538778  -0.027316
    30  H    0.000000   0.000000   0.000002   0.005670  -0.027316   0.572123
    31  H    0.000000   0.000000  -0.000001   0.000056  -0.032485  -0.027798
             31
     1  O    0.000000
     2  C    0.000000
     3  C    0.000000
     4  C    0.000002
     5  O    0.000000
     6  C    0.000000
     7  C    0.000000
     8  O    0.000000
     9  N   -0.000057
    10  C   -0.000002
    11  N    0.000021
    12  O    0.000000
    13  C    0.000389
    14  C   -0.027985
    15  C    0.368182
    16  C   -0.003534
    17  O    0.002894
    18  H    0.000000
    19  H    0.000000
    20  H    0.000000
    21  H    0.000000
    22  H    0.000000
    23  H    0.000000
    24  H    0.000000
    25  H    0.000000
    26  H    0.000000
    27  H   -0.000001
    28  H    0.000056
    29  H   -0.032485
    30  H   -0.027798
    31  H    0.542473
 Mulliken atomic charges:
              1
     1  O   -0.636848
     2  C    0.092248
     3  C   -0.350497
     4  C    0.282289
     5  O   -0.501558
     6  C    0.113459
     7  C   -0.029947
     8  O   -0.637196
     9  N   -0.504502
    10  C    0.802500
    11  N   -0.706475
    12  O   -0.519484
    13  C    0.041321
    14  C    0.040781
    15  C   -0.509935
    16  C    0.592268
    17  O   -0.496506
    18  H    0.405231
    19  H    0.176488
    20  H    0.175544
    21  H    0.159929
    22  H    0.141444
    23  H    0.142517
    24  H    0.151670
    25  H    0.133201
    26  H    0.407814
    27  H    0.355844
    28  H    0.172263
    29  H    0.180329
    30  H    0.147963
    31  H    0.177845
 Sum of Mulliken atomic charges =   0.00000
 Mulliken charges with hydrogens summed into heavy atoms:
              1
     1  O   -0.231617
     2  C    0.268736
     3  C   -0.015024
     4  C    0.423732
     5  O   -0.501558
     6  C    0.255976
     7  C    0.254924
     8  O   -0.229382
     9  N   -0.504502
    10  C    0.802500
    11  N   -0.350631
    12  O   -0.519484
    13  C    0.213583
    14  C    0.040781
    15  C   -0.003798
    16  C    0.592268
    17  O   -0.496506
 Sum of Mulliken charges with hydrogens summed into heavy atoms =   0.00000
 Electronic spatial extent (au):  <R**2>=           4970.6907
 Charge=              0.0000 electrons
 Dipole moment (field-independent basis, Debye):
    X=             -0.1339    Y=              1.7970    Z=              3.7531  Tot=              4.1633
 Quadrupole moment (field-independent basis, Debye-Ang):
   XX=           -122.4693   YY=            -93.3415   ZZ=            -96.7638
   XY=            -12.3292   XZ=              8.1384   YZ=             -1.3263
 Traceless Quadrupole moment (field-independent basis, Debye-Ang):
   XX=            -18.2778   YY=             10.8500   ZZ=              7.4278
   XY=            -12.3292   XZ=              8.1384   YZ=             -1.3263
 Octapole moment (field-independent basis, Debye-Ang**2):
  XXX=             35.6772  YYY=             -6.6953  ZZZ=              8.7925  XYY=              5.8520
  XXY=             12.1423  XXZ=             62.4672  XZZ=              6.9579  YZZ=             -9.5320
  YYZ=              4.8442  XYZ=             -8.0435
 Hexadecapole moment (field-independent basis, Debye-Ang**3):
 XXXX=          -5757.0716 YYYY=           -677.1768 ZZZZ=           -544.6332 XXXY=           -309.2155
 XXXZ=            181.3111 YYYX=             25.0809 YYYZ=              6.8232 ZZZX=             58.7192
 ZZZY=            -24.0968 XXYY=           -910.0460 XXZZ=           -953.8511 YYZZ=           -208.1303
 XXYZ=            -77.2881 YYXZ=             14.5947 ZZXY=            -13.6519
 N-N= 1.284772387502D+03 E-N=-4.613285193509D+03  KE= 8.673298417731D+02
 1|1|UNPC-DESKTOP-N7IAV1E|FOpt|RB3LYP|6-31G(d)|C10H14N2O5|KAWAS|13-Mar-
 2019|0||#opt b3lyp/6-31g(d) Geom=AllCheck Guess=Read||Conformer_1 at -
 54.66768848901698 MMFF energy generated from O[C@H]1C[C@@H](O[C@@H]1CO
 )N(C(N2)=O)C=C(C)C2=O||0,1|O,-3.5751081008,-0.1054396953,-1.8010213258
 |C,-2.3975481132,-0.2409412308,-1.003226046|C,-1.0685208341,0.01576993
 16,-1.7297669151|C,-0.1917266017,0.6939115947,-0.6481277867|O,-1.03430
 60137,0.9821731533,0.4591948466|C,-2.4030357603,0.8622135745,0.0613840
 233|C,-3.2853802312,0.5587738775,1.2672627123|O,-4.6543561444,0.586909
 3424,0.8954063125|N,0.97801786,-0.0601998412,-0.1790419614|C,0.8310695
 614,-1.3897813355,0.2302494983|N,1.9867607196,-1.9442750747,0.74989083
 62|O,-0.2066155342,-2.0251174541,0.1246634445|C,2.1767428396,0.6128798
 497,0.0160944845|C,3.2930724143,0.0598323843,0.5390612921|C,4.58506277
 63,0.801999539,0.7247794353|C,3.2408082774,-1.3414931391,0.9552841687|
 O,4.1641088322,-1.9767804193,1.440526669|H,-3.6758783577,-0.9128142961
 ,-2.3283837779|H,-2.3676627161,-1.2194896095,-0.5145133417|H,-0.610595
 3935,-0.8877221007,-2.1342504463|H,-1.2445438294,0.7223795848,-2.54802
 95984|H,0.2276422883,1.6287824086,-1.0380177353|H,-2.7529036278,1.7977
 13608,-0.4044975866|H,-3.1436554205,1.321369838,2.0399397322|H,-2.9885
 692493,-0.4128156285,1.6947643037|H,-4.7267227289,0.173307549,0.017094
 3824|H,1.9022670416,-2.9117877964,1.0418854064|H,2.1595784411,1.651481
 3414,-0.2977975178|H,4.8849094551,0.8035360081,1.7787499103|H,4.500850
 1858,1.8386966608,0.3846277594|H,5.3963379641,0.3169273756,0.170114821
 1||Version=EM64W-G09RevC.01|State=1-A|HF=-875.1224631|RMSD=7.580e-009|
 RMSF=1.572e-005|Dipole=0.3498261,0.4583694,-1.5331078|Quadrupole=-11.3
 422948,5.0567198,6.285575,12.5409371,2.1065968,1.7738382|PG=C01 [X(C10
 H14N2O5)]||@


 NOTHING WILL BE ATTEMPTED IF ALL POSSIBLE OBJECTIONS
 MUST FIRST BE OVERCOME.

                               -- THE GOLDEN PRINCIPLE,
                    PAUL DICKSON'S "THE OFFICIAL RULES"
 Job cpu time:  0 days  1 hours 55 minutes 15.0 seconds.
 File lengths (MBytes):  RWF=     62 Int=      0 D2E=      0 Chk=      7 Scr=      1
 Normal termination of Gaussian 09 at Wed Mar 13 23:02:30 2019.
