 Entering Gaussian System, Link 0=C:\G09W\g09.exe
 Input=entry2_confs_0.gjf
 Output=C:\Users\kawas\Desktop\fluorescene_okuda\calcs\nucleosides_trial2\entries\entry2\entry2_confs_0.out
 Initial command:
 C:/G09W\l1.exe .\Gau-15232.inp C:\Users\kawas\Desktop\fluorescene_okuda\calcs\nucleosides_trial2\entries\entry2\entry2_confs_0.out /scrdir=.\
 Entering Link 1 = C:/G09W\l1.exe PID=      8276.
  
 Copyright (c) 1988,1990,1992,1993,1995,1998,2003,2009,2011,
            Gaussian, Inc.  All Rights Reserved.
  
 This is part of the Gaussian(R) 09 program.  It is based on
 the Gaussian(R) 03 system (copyright 2003, Gaussian, Inc.),
 the Gaussian(R) 98 system (copyright 1998, Gaussian, Inc.),
 the Gaussian(R) 94 system (copyright 1995, Gaussian, Inc.),
 the Gaussian 92(TM) system (copyright 1992, Gaussian, Inc.),
 the Gaussian 90(TM) system (copyright 1990, Gaussian, Inc.),
 the Gaussian 88(TM) system (copyright 1988, Gaussian, Inc.),
 the Gaussian 86(TM) system (copyright 1986, Carnegie Mellon
 University), and the Gaussian 82(TM) system (copyright 1983,
 Carnegie Mellon University). Gaussian is a federally registered
 trademark of Gaussian, Inc.
  
 This software contains proprietary and confidential information,
 including trade secrets, belonging to Gaussian, Inc.
  
 This software is provided under written license and may be
 used, copied, transmitted, or stored only in accord with that
 written license.
  
 The following legend is applicable only to US Government
 contracts under FAR:
  
                    RESTRICTED RIGHTS LEGEND
  
 Use, reproduction and disclosure by the US Government is
 subject to restrictions as set forth in subparagraphs (a)
 and (c) of the Commercial Computer Software - Restricted
 Rights clause in FAR 52.227-19.
  
 Gaussian, Inc.
 340 Quinnipiac St., Bldg. 40, Wallingford CT 06492
  
  
 ---------------------------------------------------------------
 Warning -- This program may not be used in any manner that
 competes with the business of Gaussian, Inc. or will provide
 assistance to any competitor of Gaussian, Inc.  The licensee
 of this program is prohibited from giving any competitor of
 Gaussian, Inc. access to this program.  By using this program,
 the user acknowledges that Gaussian, Inc. is engaged in the
 business of creating and licensing software in the field of
 computational chemistry and represents and warrants to the
 licensee that it is not a competitor of Gaussian, Inc. and that
 it will not use this program in any manner prohibited above.
 ---------------------------------------------------------------
  

 Cite this work as:
 Gaussian 09, Revision C.01,
 M. J. Frisch, G. W. Trucks, H. B. Schlegel, G. E. Scuseria, 
 M. A. Robb, J. R. Cheeseman, G. Scalmani, V. Barone, B. Mennucci, 
 G. A. Petersson, H. Nakatsuji, M. Caricato, X. Li, H. P. Hratchian, 
 A. F. Izmaylov, J. Bloino, G. Zheng, J. L. Sonnenberg, M. Hada, 
 M. Ehara, K. Toyota, R. Fukuda, J. Hasegawa, M. Ishida, T. Nakajima, 
 Y. Honda, O. Kitao, H. Nakai, T. Vreven, J. A. Montgomery, Jr., 
 J. E. Peralta, F. Ogliaro, M. Bearpark, J. J. Heyd, E. Brothers, 
 K. N. Kudin, V. N. Staroverov, T. Keith, R. Kobayashi, J. Normand, 
 K. Raghavachari, A. Rendell, J. C. Burant, S. S. Iyengar, J. Tomasi, 
 M. Cossi, N. Rega, J. M. Millam, M. Klene, J. E. Knox, J. B. Cross, 
 V. Bakken, C. Adamo, J. Jaramillo, R. Gomperts, R. E. Stratmann, 
 O. Yazyev, A. J. Austin, R. Cammi, C. Pomelli, J. W. Ochterski, 
 R. L. Martin, K. Morokuma, V. G. Zakrzewski, G. A. Voth, 
 P. Salvador, J. J. Dannenberg, S. Dapprich, A. D. Daniels, 
 O. Farkas, J. B. Foresman, J. V. Ortiz, J. Cioslowski, 
 and D. J. Fox, Gaussian, Inc., Wallingford CT, 2010.
 
 ******************************************
 Gaussian 09:  EM64W-G09RevC.01 23-Sep-2011
                13-Mar-2019 
 ******************************************
 %chk=entry2_confs_0
 %nprocshared=4
 Will use up to    4 processors via shared memory.
 %mem=260MB
 -------------
 #opt hf/3-21g
 -------------
 1/18=20,19=15,38=1/1,3;
 2/9=110,12=2,17=6,18=5,40=1/2;
 3/5=5,11=9,16=1,25=1,30=1,71=1/1,2,3;
 4//1;
 5/5=2,38=5/2;
 6/7=2,8=2,9=2,10=2,28=1/1;
 7//1,2,3,16;
 1/18=20,19=15/3(2);
 2/9=110/2;
 99//99;
 2/9=110/2;
 3/5=5,11=9,16=1,25=1,30=1,71=1/1,2,3;
 4/5=5,16=3/1;
 5/5=2,38=5/2;
 7//1,2,3,16;
 1/18=20,19=15/3(-5);
 2/9=110/2;
 6/7=2,8=2,9=2,10=2,19=2,28=1/1;
 99/9=1/99;
 ----------------------------------------------------------------------
 Conformer_0 at -57.784973978956714 MMFF energy generated from O[C@H]1C
 [C@@H](O[C@@H]1CO)N(C(N2)=O)C=C(C)C2=O
 ----------------------------------------------------------------------
 Charge =  0 Multiplicity = 1
 Symbolic Z-Matrix:
 O                     3.0256   -1.8165    0.064 
 C                     2.6125   -0.7164   -0.4961 
 C                     1.1559   -0.9313   -0.93 
 C                     0.4743   -0.6812    0.4228 
 O                     1.1044    0.466     0.8347 
 C                     2.4377    0.3515    0.5588 
 C                     3.0357    1.633    -0.0279 
 O                     4.3906    1.3692   -0.2569 
 N                    -0.9358   -0.5729    0.2965 
 C                    -1.656    -1.7325    0.2602 
 N                    -2.9836   -1.7512    0.1442 
 O                    -1.0623   -2.8359    0.3378 
 C                    -1.6412    0.5568    0.2086 
 C                    -3.017     0.57      0.0876 
 C                    -3.7837    1.8439   -0.0091 
 C                    -3.6996   -0.6233    0.0553 
 O                    -4.9596   -0.6685   -0.0541 
 H                     2.8097   -2.3034    0.702 
 H                     3.235    -0.3919   -1.3408 
 H                     0.8501   -0.1159   -1.6222 
 H                     0.9774   -1.9363   -1.3065 
 H                     0.73     -1.5647    1.0546 
 H                     3.067     0.1234    1.454 
 H                     2.5415    1.8409   -1.0054 
 H                     2.9689    2.4779    0.6802 
 H                     4.9173    2.1872   -0.3602 
 H                    -3.515    -2.6664    0.1188 
 H                    -1.0923    1.4908    0.2351 
 H                    -3.3493    2.643     0.6005 
 H                    -4.8503    1.6441    0.2546 
 H                    -3.7879    2.1107   -1.098 
 

 GradGradGradGradGradGradGradGradGradGradGradGradGradGradGradGradGradGrad
 Berny optimization.
 Initialization pass.
                           ----------------------------
                           !    Initial Parameters    !
                           ! (Angstroms and Degrees)  !
 --------------------------                            --------------------------
 ! Name  Definition              Value          Derivative Info.                !
 --------------------------------------------------------------------------------
 ! R1    R(1,2)                  1.3018         estimate D2E/DX2                !
 ! R2    R(1,18)                 0.8311         estimate D2E/DX2                !
 ! R3    R(2,3)                  1.535          estimate D2E/DX2                !
 ! R4    R(2,6)                  1.5112         estimate D2E/DX2                !
 ! R5    R(2,19)                 1.0983         estimate D2E/DX2                !
 ! R6    R(3,4)                  1.5353         estimate D2E/DX2                !
 ! R7    R(3,20)                 1.1124         estimate D2E/DX2                !
 ! R8    R(3,21)                 1.088          estimate D2E/DX2                !
 ! R9    R(4,5)                  1.3721         estimate D2E/DX2                !
 ! R10   R(4,9)                  1.4199         estimate D2E/DX2                !
 ! R11   R(4,22)                 1.1159         estimate D2E/DX2                !
 ! R12   R(5,6)                  1.3664         estimate D2E/DX2                !
 ! R13   R(6,7)                  1.531          estimate D2E/DX2                !
 ! R14   R(6,23)                 1.1178         estimate D2E/DX2                !
 ! R15   R(7,8)                  1.3992         estimate D2E/DX2                !
 ! R16   R(7,24)                 1.1149         estimate D2E/DX2                !
 ! R17   R(7,25)                 1.1044         estimate D2E/DX2                !
 ! R18   R(8,26)                 0.9784         estimate D2E/DX2                !
 ! R19   R(9,10)                 1.3655         estimate D2E/DX2                !
 ! R20   R(9,13)                 1.3347         estimate D2E/DX2                !
 ! R21   R(10,11)                1.3328         estimate D2E/DX2                !
 ! R22   R(10,12)                1.2554         estimate D2E/DX2                !
 ! R23   R(11,16)                1.3389         estimate D2E/DX2                !
 ! R24   R(11,27)                1.0586         estimate D2E/DX2                !
 ! R25   R(13,14)                1.3812         estimate D2E/DX2                !
 ! R26   R(13,28)                1.0837         estimate D2E/DX2                !
 ! R27   R(14,15)                1.49           estimate D2E/DX2                !
 ! R28   R(14,16)                1.3751         estimate D2E/DX2                !
 ! R29   R(15,29)                1.0949         estimate D2E/DX2                !
 ! R30   R(15,30)                1.1167         estimate D2E/DX2                !
 ! R31   R(15,31)                1.1211         estimate D2E/DX2                !
 ! R32   R(16,17)                1.2655         estimate D2E/DX2                !
 ! A1    A(2,1,18)             137.9833         estimate D2E/DX2                !
 ! A2    A(1,2,3)              107.7249         estimate D2E/DX2                !
 ! A3    A(1,2,6)              109.4838         estimate D2E/DX2                !
 ! A4    A(1,2,19)             113.6236         estimate D2E/DX2                !
 ! A5    A(3,2,6)              100.7481         estimate D2E/DX2                !
 ! A6    A(3,2,19)             111.2106         estimate D2E/DX2                !
 ! A7    A(6,2,19)             113.1806         estimate D2E/DX2                !
 ! A8    A(2,3,4)               98.5923         estimate D2E/DX2                !
 ! A9    A(2,3,20)             109.5194         estimate D2E/DX2                !
 ! A10   A(2,3,21)             112.51           estimate D2E/DX2                !
 ! A11   A(4,3,20)             107.868          estimate D2E/DX2                !
 ! A12   A(4,3,21)             112.4925         estimate D2E/DX2                !
 ! A13   A(20,3,21)            114.6239         estimate D2E/DX2                !
 ! A14   A(3,4,5)              101.3517         estimate D2E/DX2                !
 ! A15   A(3,4,9)              112.0205         estimate D2E/DX2                !
 ! A16   A(3,4,22)             105.5563         estimate D2E/DX2                !
 ! A17   A(5,4,9)              114.7702         estimate D2E/DX2                !
 ! A18   A(5,4,22)             112.7542         estimate D2E/DX2                !
 ! A19   A(9,4,22)             109.7751         estimate D2E/DX2                !
 ! A20   A(4,5,6)              108.5073         estimate D2E/DX2                !
 ! A21   A(2,6,5)              108.2425         estimate D2E/DX2                !
 ! A22   A(2,6,7)              106.1888         estimate D2E/DX2                !
 ! A23   A(2,6,23)             110.4704         estimate D2E/DX2                !
 ! A24   A(5,6,7)              112.8534         estimate D2E/DX2                !
 ! A25   A(5,6,23)             113.8759         estimate D2E/DX2                !
 ! A26   A(7,6,23)             104.9401         estimate D2E/DX2                !
 ! A27   A(6,7,8)              106.4469         estimate D2E/DX2                !
 ! A28   A(6,7,24)             108.5983         estimate D2E/DX2                !
 ! A29   A(6,7,25)             111.7784         estimate D2E/DX2                !
 ! A30   A(8,7,24)             108.7173         estimate D2E/DX2                !
 ! A31   A(8,7,25)             107.9229         estimate D2E/DX2                !
 ! A32   A(24,7,25)            113.1213         estimate D2E/DX2                !
 ! A33   A(7,8,26)             112.3923         estimate D2E/DX2                !
 ! A34   A(4,9,10)             117.4758         estimate D2E/DX2                !
 ! A35   A(4,9,13)             126.5316         estimate D2E/DX2                !
 ! A36   A(10,9,13)            115.9927         estimate D2E/DX2                !
 ! A37   A(9,10,11)            122.6556         estimate D2E/DX2                !
 ! A38   A(9,10,12)            119.6905         estimate D2E/DX2                !
 ! A39   A(11,10,12)           117.6539         estimate D2E/DX2                !
 ! A40   A(10,11,16)           121.7784         estimate D2E/DX2                !
 ! A41   A(10,11,27)           120.9474         estimate D2E/DX2                !
 ! A42   A(16,11,27)           117.2743         estimate D2E/DX2                !
 ! A43   A(9,13,14)            122.7036         estimate D2E/DX2                !
 ! A44   A(9,13,28)            117.3987         estimate D2E/DX2                !
 ! A45   A(14,13,28)           119.8976         estimate D2E/DX2                !
 ! A46   A(13,14,15)           121.7646         estimate D2E/DX2                !
 ! A47   A(13,14,16)           119.2241         estimate D2E/DX2                !
 ! A48   A(15,14,16)           119.0113         estimate D2E/DX2                !
 ! A49   A(14,15,29)           112.563          estimate D2E/DX2                !
 ! A50   A(14,15,30)           108.8553         estimate D2E/DX2                !
 ! A51   A(14,15,31)           105.5709         estimate D2E/DX2                !
 ! A52   A(29,15,30)           112.2119         estimate D2E/DX2                !
 ! A53   A(29,15,31)           111.6265         estimate D2E/DX2                !
 ! A54   A(30,15,31)           105.566          estimate D2E/DX2                !
 ! A55   A(11,16,14)           117.6456         estimate D2E/DX2                !
 ! A56   A(11,16,17)           120.5351         estimate D2E/DX2                !
 ! A57   A(14,16,17)           121.8193         estimate D2E/DX2                !
 ! D1    D(18,1,2,3)           -58.0146         estimate D2E/DX2                !
 ! D2    D(18,1,2,6)            50.6943         estimate D2E/DX2                !
 ! D3    D(18,1,2,19)          178.3184         estimate D2E/DX2                !
 ! D4    D(1,2,3,4)             81.0789         estimate D2E/DX2                !
 ! D5    D(1,2,3,20)          -166.4142         estimate D2E/DX2                !
 ! D6    D(1,2,3,21)           -37.7            estimate D2E/DX2                !
 ! D7    D(6,2,3,4)            -33.5719         estimate D2E/DX2                !
 ! D8    D(6,2,3,20)            78.9349         estimate D2E/DX2                !
 ! D9    D(6,2,3,21)          -152.3509         estimate D2E/DX2                !
 ! D10   D(19,2,3,4)          -153.7998         estimate D2E/DX2                !
 ! D11   D(19,2,3,20)          -41.293          estimate D2E/DX2                !
 ! D12   D(19,2,3,21)           87.4212         estimate D2E/DX2                !
 ! D13   D(1,2,6,5)           -102.1985         estimate D2E/DX2                !
 ! D14   D(1,2,6,7)            136.3685         estimate D2E/DX2                !
 ! D15   D(1,2,6,23)            23.1074         estimate D2E/DX2                !
 ! D16   D(3,2,6,5)             11.1215         estimate D2E/DX2                !
 ! D17   D(3,2,6,7)           -110.3115         estimate D2E/DX2                !
 ! D18   D(3,2,6,23)           136.4275         estimate D2E/DX2                !
 ! D19   D(19,2,6,5)           129.9297         estimate D2E/DX2                !
 ! D20   D(19,2,6,7)             8.4968         estimate D2E/DX2                !
 ! D21   D(19,2,6,23)         -104.7643         estimate D2E/DX2                !
 ! D22   D(2,3,4,5)             46.519          estimate D2E/DX2                !
 ! D23   D(2,3,4,9)            169.3499         estimate D2E/DX2                !
 ! D24   D(2,3,4,22)           -71.2161         estimate D2E/DX2                !
 ! D25   D(20,3,4,5)           -67.2941         estimate D2E/DX2                !
 ! D26   D(20,3,4,9)            55.5368         estimate D2E/DX2                !
 ! D27   D(20,3,4,22)          174.9708         estimate D2E/DX2                !
 ! D28   D(21,3,4,5)           165.3111         estimate D2E/DX2                !
 ! D29   D(21,3,4,9)           -71.8579         estimate D2E/DX2                !
 ! D30   D(21,3,4,22)           47.576          estimate D2E/DX2                !
 ! D31   D(3,4,5,6)            -42.3367         estimate D2E/DX2                !
 ! D32   D(9,4,5,6)           -163.2543         estimate D2E/DX2                !
 ! D33   D(22,4,5,6)            70.048          estimate D2E/DX2                !
 ! D34   D(3,4,9,10)            82.9746         estimate D2E/DX2                !
 ! D35   D(3,4,9,13)           -97.0388         estimate D2E/DX2                !
 ! D36   D(5,4,9,10)          -162.1619         estimate D2E/DX2                !
 ! D37   D(5,4,9,13)            17.8246         estimate D2E/DX2                !
 ! D38   D(22,4,9,10)          -33.9506         estimate D2E/DX2                !
 ! D39   D(22,4,9,13)          146.036          estimate D2E/DX2                !
 ! D40   D(4,5,6,2)             19.9451         estimate D2E/DX2                !
 ! D41   D(4,5,6,7)            137.1696         estimate D2E/DX2                !
 ! D42   D(4,5,6,23)          -103.3251         estimate D2E/DX2                !
 ! D43   D(2,6,7,8)            -61.576          estimate D2E/DX2                !
 ! D44   D(2,6,7,24)            55.3195         estimate D2E/DX2                !
 ! D45   D(2,6,7,25)          -179.1874         estimate D2E/DX2                !
 ! D46   D(5,6,7,8)            179.9939         estimate D2E/DX2                !
 ! D47   D(5,6,7,24)           -63.1107         estimate D2E/DX2                !
 ! D48   D(5,6,7,25)            62.3824         estimate D2E/DX2                !
 ! D49   D(23,6,7,8)            55.4484         estimate D2E/DX2                !
 ! D50   D(23,6,7,24)          172.3438         estimate D2E/DX2                !
 ! D51   D(23,6,7,25)          -62.1631         estimate D2E/DX2                !
 ! D52   D(6,7,8,26)          -161.8597         estimate D2E/DX2                !
 ! D53   D(24,7,8,26)           81.3241         estimate D2E/DX2                !
 ! D54   D(25,7,8,26)          -41.7236         estimate D2E/DX2                !
 ! D55   D(4,9,10,11)          179.9944         estimate D2E/DX2                !
 ! D56   D(4,9,10,12)           -0.0071         estimate D2E/DX2                !
 ! D57   D(13,9,10,11)           0.0064         estimate D2E/DX2                !
 ! D58   D(13,9,10,12)        -179.9951         estimate D2E/DX2                !
 ! D59   D(4,9,13,14)         -179.995          estimate D2E/DX2                !
 ! D60   D(4,9,13,28)            0.0136         estimate D2E/DX2                !
 ! D61   D(10,9,13,14)          -0.0082         estimate D2E/DX2                !
 ! D62   D(10,9,13,28)        -179.9997         estimate D2E/DX2                !
 ! D63   D(9,10,11,16)          -0.0012         estimate D2E/DX2                !
 ! D64   D(9,10,11,27)        -179.9998         estimate D2E/DX2                !
 ! D65   D(12,10,11,16)       -179.9996         estimate D2E/DX2                !
 ! D66   D(12,10,11,27)          0.0018         estimate D2E/DX2                !
 ! D67   D(10,11,16,14)         -0.0025         estimate D2E/DX2                !
 ! D68   D(10,11,16,17)       -179.997          estimate D2E/DX2                !
 ! D69   D(27,11,16,14)        179.9961         estimate D2E/DX2                !
 ! D70   D(27,11,16,17)          0.0017         estimate D2E/DX2                !
 ! D71   D(9,13,14,15)        -179.9954         estimate D2E/DX2                !
 ! D72   D(9,13,14,16)           0.0048         estimate D2E/DX2                !
 ! D73   D(28,13,14,15)         -0.0042         estimate D2E/DX2                !
 ! D74   D(28,13,14,16)        179.9961         estimate D2E/DX2                !
 ! D75   D(13,14,15,29)        -35.5266         estimate D2E/DX2                !
 ! D76   D(13,14,15,30)       -160.5897         estimate D2E/DX2                !
 ! D77   D(13,14,15,31)         86.4849         estimate D2E/DX2                !
 ! D78   D(16,14,15,29)        144.4731         estimate D2E/DX2                !
 ! D79   D(16,14,15,30)         19.4101         estimate D2E/DX2                !
 ! D80   D(16,14,15,31)        -93.5153         estimate D2E/DX2                !
 ! D81   D(13,14,16,11)          0.0008         estimate D2E/DX2                !
 ! D82   D(13,14,16,17)        179.9952         estimate D2E/DX2                !
 ! D83   D(15,14,16,11)       -179.9989         estimate D2E/DX2                !
 ! D84   D(15,14,16,17)         -0.0046         estimate D2E/DX2                !
 --------------------------------------------------------------------------------
 Trust Radius=3.00D-01 FncErr=1.00D-07 GrdErr=1.00D-07
 Number of steps in this run=    183 maximum allowed number of steps=    186.
 GradGradGradGradGradGradGradGradGradGradGradGradGradGradGradGradGradGrad

                          Input orientation:                          
 ---------------------------------------------------------------------
 Center     Atomic      Atomic             Coordinates (Angstroms)
 Number     Number       Type             X           Y           Z
 ---------------------------------------------------------------------
      1          8           0        3.025600   -1.816500    0.064000
      2          6           0        2.612500   -0.716400   -0.496100
      3          6           0        1.155900   -0.931300   -0.930000
      4          6           0        0.474300   -0.681200    0.422800
      5          8           0        1.104400    0.466000    0.834700
      6          6           0        2.437700    0.351500    0.558800
      7          6           0        3.035700    1.633000   -0.027900
      8          8           0        4.390600    1.369200   -0.256900
      9          7           0       -0.935800   -0.572900    0.296500
     10          6           0       -1.656000   -1.732500    0.260200
     11          7           0       -2.983600   -1.751200    0.144200
     12          8           0       -1.062300   -2.835900    0.337800
     13          6           0       -1.641200    0.556800    0.208600
     14          6           0       -3.017000    0.570000    0.087600
     15          6           0       -3.783700    1.843900   -0.009100
     16          6           0       -3.699600   -0.623300    0.055300
     17          8           0       -4.959600   -0.668500   -0.054100
     18          1           0        2.809700   -2.303400    0.702000
     19          1           0        3.235000   -0.391900   -1.340800
     20          1           0        0.850100   -0.115900   -1.622200
     21          1           0        0.977400   -1.936300   -1.306500
     22          1           0        0.730000   -1.564700    1.054600
     23          1           0        3.067000    0.123400    1.454000
     24          1           0        2.541500    1.840900   -1.005400
     25          1           0        2.968900    2.477900    0.680200
     26          1           0        4.917300    2.187200   -0.360200
     27          1           0       -3.515000   -2.666400    0.118800
     28          1           0       -1.092300    1.490800    0.235100
     29          1           0       -3.349300    2.643000    0.600500
     30          1           0       -4.850300    1.644100    0.254600
     31          1           0       -3.787900    2.110700   -1.098000
 ---------------------------------------------------------------------
                    Distance matrix (angstroms):
                    1          2          3          4          5
     1  O    0.000000
     2  C    1.301762   0.000000
     3  C    2.295080   1.534971   0.000000
     4  C    2.815453   2.327556   1.535316   0.000000
     5  O    3.081362   2.333123   2.251503   1.372135   0.000000
     6  C    2.300147   1.511218   2.346298   2.222590   1.366353
     7  C    3.450739   2.432692   3.305006   3.481296   2.415758
     8  O    3.480645   2.751106   4.025997   4.472531   3.578613
     9  N    4.158520   3.638577   2.451114   1.419881   2.351890
    10  C    4.686462   4.452476   3.156783   2.381144   3.575369
    11  N    6.010090   5.726878   4.354492   3.630371   4.701543
    12  O    4.221975   4.323404   3.186727   2.647848   3.980458
    13  C    5.237603   4.495732   3.366693   2.460461   2.817546
    14  C    6.496842   5.804033   4.550001   3.723847   4.189858
    15  C    7.731134   6.906785   5.740160   4.969228   5.148216
    16  C    6.830235   6.336822   4.964027   4.190447   4.987229
    17  O    8.068164   7.585141   6.183495   5.454802   6.232909
    18  H    0.831101   1.998224   2.698358   2.857198   3.255032
    19  H    2.011665   1.098328   2.186862   3.288684   3.163582
    20  H    3.235446   2.175949   1.112444   2.154719   2.537643
    21  H    2.467336   2.195098   1.087952   2.195191   3.220545
    22  H    2.512861   2.582264   2.126317   1.115852   2.076602
    23  H    2.386844   2.171342   3.232360   2.903937   2.086314
    24  H    3.841164   2.608488   3.100107   3.560065   2.709534
    25  H    4.338754   3.422609   4.183582   4.033509   2.747357
    26  H    4.448380   3.709645   4.919130   5.346125   4.350692
    27  H    6.595815   6.459633   5.091941   4.466313   5.627015
    28  H    5.284374   4.374006   3.504059   2.684595   2.497043
    29  H    7.798354   6.930452   5.951040   5.069694   4.962824
    30  H    8.604759   7.863135   6.641566   5.812631   6.097777
    31  H    7.949649   7.022813   5.807163   5.317320   5.511349
                    6          7          8          9         10
     6  C    0.000000
     7  C    1.531033   0.000000
     8  O    2.348382   1.399209   0.000000
     9  N    3.507680   4.554563   5.696362   0.000000
    10  C    4.603325   5.781145   6.815373   1.365532   0.000000
    11  N    5.829557   6.907561   8.017269   2.367503   1.332789
    12  O    4.739025   6.074406   6.911632   2.266909   1.255386
    13  C    4.099050   4.804949   6.104039   1.334743   2.289929
    14  C    5.479373   6.146421   7.458548   2.383538   2.680227
    15  C    6.423051   6.822686   8.191821   3.747646   4.170164
    16  C    6.234597   7.103667   8.337797   2.774763   2.334226
    17  O    7.492402   8.320001   9.571812   4.040177   3.484918
    18  H    2.684657   4.009872   4.111779   4.145821   4.523670
    19  H    2.190162   2.421497   2.368908   4.484315   5.318110
    20  H    2.737827   3.221380   4.074887   2.660770   3.526665
    21  H    3.293304   4.314084   4.865997   2.844082   3.070974
    22  H    2.614169   4.088196   4.871118   2.081651   2.520362
    23  H    1.117780   2.115632   2.496220   4.224577   5.213085
    24  H    2.162362   1.114882   2.049859   4.428655   5.655965
    25  H    2.195106   1.104411   2.031896   4.970039   6.268458
    26  H    3.219126   1.989467   0.978370   6.504474   7.678360
    27  H    6.688494   7.836966   8.884015   3.326649   2.085196
    28  H    3.723397   4.138813   5.506273   2.070536   3.272316
    29  H    6.224314   6.494860   7.890738   4.032296   4.704048
    30  H    7.407989   7.891066   9.259127   4.498906   4.648119
    31  H    6.678163   6.923498   8.255007   4.157020   4.599988
                   11         12         13         14         15
    11  N    0.000000
    12  O    2.214825   0.000000
    13  C    2.670777   3.444159   0.000000
    14  C    2.322130   3.934921   1.381174   0.000000
    15  C    3.686245   5.424655   2.508850   1.489967   0.000000
    16  C    1.338924   3.454093   2.377635   1.375119   2.469473
    17  O    2.261888   4.476623   3.547133   2.308172   2.774332
    18  H    5.846229   3.925377   5.313633   6.525668   7.821680
    19  H    6.536353   5.220883   5.203652   6.484835   7.485611
    20  H    4.526768   3.859699   3.164005   4.283496   5.283466
    21  H    4.222359   2.770086   3.920222   4.917345   6.216207
    22  H    3.828111   2.311296   3.292274   4.419507   5.755302
    23  H    6.468343   5.201392   4.889377   6.251524   7.213381
    24  H    6.689656   6.055082   4.540670   5.805752   6.403185
    25  H    7.321533   6.678644   5.016578   6.310488   6.817235
    26  H    8.842490   7.840558   6.782010   8.109807   8.714845
    27  H    1.058594   2.468285   3.729371   3.274639   4.520107
    28  H    3.754443   4.328023   1.083674   2.138714   2.725426
    29  H    4.432938   5.942872   2.724596   2.161208   1.094932
    30  H    3.876186   5.867390   3.388607   2.131330   1.116733
    31  H    4.135726   5.827458   2.954679   2.091337   1.121117
                   16         17         18         19         20
    16  C    0.000000
    17  O    1.265548   0.000000
    18  H    6.753661   7.975375   0.000000
    19  H    7.077522   8.299613   2.829796   0.000000
    20  H    4.875575   6.042923   3.745276   2.417253   0.000000
    21  H    5.045077   6.198693   2.743384   2.735527   1.851952
    22  H    4.637477   5.865487   2.234985   3.659020   3.046096
    23  H    6.949878   8.205351   2.553638   2.846869   3.799331
    24  H    6.793283   7.966716   4.490253   2.361955   2.659012
    25  H    7.380842   8.561550   4.783999   3.520086   4.064254
    26  H    9.073176  10.286004   5.073040   3.231635   4.841387
    27  H    2.052405   2.471511   6.361896   7.270920   5.346983
    28  H    3.361512   4.438719   5.462559   4.975293   3.131129
    29  H    3.329965   3.740000   7.900029   7.505483   5.494259
    30  H    2.550477   2.335671   8.628935   8.488974   6.254162
    31  H    2.968611   3.191639   8.139570   7.459429   5.171419
                   21         22         23         24         25
    21  H    0.000000
    22  H    2.402933   0.000000
    23  H    4.028542   2.910459   0.000000
    24  H    4.099306   4.373013   3.045424   0.000000
    25  H    5.234330   4.636320   2.480335   1.851941   0.000000
    26  H    5.781137   5.797577   3.312733   2.486088   2.227824
    27  H    4.769296   4.484361   7.272446   7.632874   8.295779
    28  H    4.290129   3.650813   4.544808   3.855634   4.203073
    29  H    6.582323   5.878064   6.945916   6.158231   6.320859
    30  H    7.015582   6.486613   8.150750   7.501002   7.875039
    31  H    6.255379   6.209160   7.579691   6.335824   6.996512
                   26         27         28         29         30
    26  H    0.000000
    27  H    9.741178   0.000000
    28  H    6.079033   4.813036   0.000000
    29  H    8.334709   5.333781   2.560299   0.000000
    30  H    9.801987   4.514629   3.761176   1.835878   0.000000
    31  H    8.736745   4.937181   3.070455   1.833198   1.782116
                   31
    31  H    0.000000
 Stoichiometry    C10H14N2O5
 Framework group  C1[X(C10H14N2O5)]
 Deg. of freedom    87
 Full point group                 C1      NOp   1
 Largest Abelian subgroup         C1      NOp   1
 Largest concise Abelian subgroup C1      NOp   1
                         Standard orientation:                         
 ---------------------------------------------------------------------
 Center     Atomic      Atomic             Coordinates (Angstroms)
 Number     Number       Type             X           Y           Z
 ---------------------------------------------------------------------
      1          8           0       -3.073126   -1.826314   -0.018850
      2          6           0       -2.776104   -0.684054    0.530335
      3          6           0       -1.313956   -0.753784    0.992284
      4          6           0       -0.634226   -0.459882   -0.352627
      5          8           0       -1.362123    0.616428   -0.793624
      6          6           0       -2.683511    0.380218   -0.538557
      7          6           0       -3.410515    1.607703    0.017148
      8          8           0       -4.738445    1.220155    0.227373
      9          7           0        0.756788   -0.216752   -0.204202
     10          6           0        1.582451   -1.302311   -0.136974
     11          7           0        2.903526   -1.193556    0.001806
     12          8           0        1.097096   -2.457970   -0.206801
     13          6           0        1.350652    0.975811   -0.122609
     14          6           0        2.716601    1.120955    0.021472
     15          6           0        3.357706    2.462986    0.110574
     16          6           0        3.508093   -0.001767    0.084608
     17          8           0        4.764505    0.074114    0.216071
     18          1           0       -2.800519   -2.299769   -0.645152
     19          1           0       -3.441900   -0.407756    1.359009
     20          1           0       -1.099291    0.096838    1.676312
     21          1           0       -1.048338   -1.731815    1.387937
     22          1           0       -0.793706   -1.372673   -0.974322
     23          1           0       -3.271882    0.080631   -1.440498
     24          1           0       -2.956225    1.875583    0.999402
     25          1           0       -3.410752    2.444795   -0.703269
     26          1           0       -5.341826    1.986025    0.308504
     27          1           0        3.518393   -2.053871    0.050989
     28          1           0        0.716612    1.853167   -0.173491
     29          1           0        2.861103    3.208463   -0.519129
     30          1           0        4.443076    2.361267   -0.131743
     31          1           0        3.316657    2.744717    1.194938
 ---------------------------------------------------------------------
 Rotational constants (GHZ):      1.0751884      0.2529755      0.2129305
 Standard basis: 3-21G (6D, 7F)
 There are   181 symmetry adapted basis functions of A   symmetry.
 Integral buffers will be    131072 words long.
 Raffenetti 1 integral format.
 Two-electron integral symmetry is turned on.
   181 basis functions,   297 primitive gaussians,   181 cartesian basis functions
    64 alpha electrons       64 beta electrons
       nuclear repulsion energy      1300.5551665717 Hartrees.
 NAtoms=   31 NActive=   31 NUniq=   31 SFac= 1.00D+00 NAtFMM=   60 NAOKFM=F Big=F
 One-electron integrals computed using PRISM.
 NBasis=   181 RedAO= T  NBF=   181
 NBsUse=   181 1.00D-06 NBFU=   181
 Harris functional with IExCor=  205 diagonalized for initial guess.
 ExpMin= 1.83D-01 ExpMax= 3.22D+02 ExpMxC= 3.22D+02 IAcc=1 IRadAn=         1 AccDes= 0.00D+00
 HarFok:  IExCor=  205 AccDes= 0.00D+00 IRadAn=         1 IDoV= 1
 ScaDFX=  1.000000  1.000000  1.000000  1.000000
 FoFCou: FMM=F IPFlag=           0 FMFlag=      100000 FMFlg1=           0
         NFxFlg=           0 DoJE=T BraDBF=F KetDBF=T FulRan=T
         Omega=  0.000000  0.000000  1.000000  0.000000  0.000000 ICntrl=     500 IOpCl=  0
         NMat0=    1 NMatS0=    1 NMatT0=    0 NMatD0=    1 NMtDS0=    0 NMtDT0=    0
         I1Cent=           4 NGrid=           0.
 Petite list used in FoFCou.
 Initial guess orbital symmetries:
       Occupied  (A) (A) (A) (A) (A) (A) (A) (A) (A) (A) (A) (A)
                 (A) (A) (A) (A) (A) (A) (A) (A) (A) (A) (A) (A)
                 (A) (A) (A) (A) (A) (A) (A) (A) (A) (A) (A) (A)
                 (A) (A) (A) (A) (A) (A) (A) (A) (A) (A) (A) (A)
                 (A) (A) (A) (A) (A) (A) (A) (A) (A) (A) (A) (A)
                 (A) (A) (A) (A)
       Virtual   (A) (A) (A) (A) (A) (A) (A) (A) (A) (A) (A) (A)
                 (A) (A) (A) (A) (A) (A) (A) (A) (A) (A) (A) (A)
                 (A) (A) (A) (A) (A) (A) (A) (A) (A) (A) (A) (A)
                 (A) (A) (A) (A) (A) (A) (A) (A) (A) (A) (A) (A)
                 (A) (A) (A) (A) (A) (A) (A) (A) (A) (A) (A) (A)
                 (A) (A) (A) (A) (A) (A) (A) (A) (A) (A) (A) (A)
                 (A) (A) (A) (A) (A) (A) (A) (A) (A) (A) (A) (A)
                 (A) (A) (A) (A) (A) (A) (A) (A) (A) (A) (A) (A)
                 (A) (A) (A) (A) (A) (A) (A) (A) (A) (A) (A) (A)
                 (A) (A) (A) (A) (A) (A) (A) (A) (A)
 The electronic state of the initial guess is 1-A.
 Requested convergence on RMS density matrix=1.00D-08 within 128 cycles.
 Requested convergence on MAX density matrix=1.00D-06.
 Requested convergence on             energy=1.00D-06.
 No special actions if energy rises.
 Integral accuracy reduced to 1.0D-05 until final iterations.
 Initial convergence to 1.0D-05 achieved.  Increase integral accuracy.
 SCF Done:  E(RHF) =  -865.114641164     A.U. after   16 cycles
             Convg  =    0.4905D-08             -V/T =  2.0010

 **********************************************************************

            Population analysis using the SCF density.

 **********************************************************************

 Orbital symmetries:
       Occupied  (A) (A) (A) (A) (A) (A) (A) (A) (A) (A) (A) (A)
                 (A) (A) (A) (A) (A) (A) (A) (A) (A) (A) (A) (A)
                 (A) (A) (A) (A) (A) (A) (A) (A) (A) (A) (A) (A)
                 (A) (A) (A) (A) (A) (A) (A) (A) (A) (A) (A) (A)
                 (A) (A) (A) (A) (A) (A) (A) (A) (A) (A) (A) (A)
                 (A) (A) (A) (A)
       Virtual   (A) (A) (A) (A) (A) (A) (A) (A) (A) (A) (A) (A)
                 (A) (A) (A) (A) (A) (A) (A) (A) (A) (A) (A) (A)
                 (A) (A) (A) (A) (A) (A) (A) (A) (A) (A) (A) (A)
                 (A) (A) (A) (A) (A) (A) (A) (A) (A) (A) (A) (A)
                 (A) (A) (A) (A) (A) (A) (A) (A) (A) (A) (A) (A)
                 (A) (A) (A) (A) (A) (A) (A) (A) (A) (A) (A) (A)
                 (A) (A) (A) (A) (A) (A) (A) (A) (A) (A) (A) (A)
                 (A) (A) (A) (A) (A) (A) (A) (A) (A) (A) (A) (A)
                 (A) (A) (A) (A) (A) (A) (A) (A) (A) (A) (A) (A)
                 (A) (A) (A) (A) (A) (A) (A) (A) (A)
 The electronic state is 1-A.
 Alpha  occ. eigenvalues --  -20.49906 -20.45984 -20.42618 -20.42289 -20.41192
 Alpha  occ. eigenvalues --  -15.58714 -15.56426 -11.36485 -11.30401 -11.30150
 Alpha  occ. eigenvalues --  -11.27736 -11.24158 -11.24070 -11.23905 -11.19289
 Alpha  occ. eigenvalues --  -11.17495 -11.17295  -1.48276  -1.44395  -1.42073
 Alpha  occ. eigenvalues --   -1.37611  -1.37247  -1.32586  -1.27012  -1.11713
 Alpha  occ. eigenvalues --   -1.08293  -1.05899  -0.97068  -0.94691  -0.93431
 Alpha  occ. eigenvalues --   -0.90044  -0.85443  -0.83833  -0.79791  -0.77171
 Alpha  occ. eigenvalues --   -0.75481  -0.73019  -0.71579  -0.70636  -0.67260
 Alpha  occ. eigenvalues --   -0.66554  -0.66209  -0.63112  -0.62170  -0.60755
 Alpha  occ. eigenvalues --   -0.60251  -0.58544  -0.58473  -0.56821  -0.56492
 Alpha  occ. eigenvalues --   -0.54880  -0.54084  -0.52897  -0.52076  -0.50698
 Alpha  occ. eigenvalues --   -0.49199  -0.46288  -0.45139  -0.44086  -0.42654
 Alpha  occ. eigenvalues --   -0.41781  -0.40760  -0.40293  -0.32473
 Alpha virt. eigenvalues --    0.10183   0.17667   0.23041   0.24632   0.25527
 Alpha virt. eigenvalues --    0.25645   0.27527   0.28032   0.29920   0.31283
 Alpha virt. eigenvalues --    0.31810   0.32000   0.33393   0.34066   0.35704
 Alpha virt. eigenvalues --    0.36073   0.37049   0.38633   0.39781   0.41353
 Alpha virt. eigenvalues --    0.42909   0.43841   0.45207   0.46174   0.48374
 Alpha virt. eigenvalues --    0.49029   0.49497   0.53787   0.55179   0.57573
 Alpha virt. eigenvalues --    0.60129   0.62392   0.66954   0.67539   0.79132
 Alpha virt. eigenvalues --    0.87051   0.91164   0.93662   0.94121   0.95923
 Alpha virt. eigenvalues --    0.97441   0.98260   0.98518   0.98895   0.99351
 Alpha virt. eigenvalues --    0.99843   1.01139   1.01736   1.02231   1.03240
 Alpha virt. eigenvalues --    1.04093   1.06815   1.08334   1.08971   1.10125
 Alpha virt. eigenvalues --    1.12271   1.16583   1.18453   1.18981   1.22010
 Alpha virt. eigenvalues --    1.22815   1.25527   1.27736   1.28953   1.30829
 Alpha virt. eigenvalues --    1.31667   1.32357   1.33066   1.34373   1.34963
 Alpha virt. eigenvalues --    1.36096   1.37806   1.39694   1.41186   1.43718
 Alpha virt. eigenvalues --    1.46185   1.48893   1.49184   1.55598   1.58395
 Alpha virt. eigenvalues --    1.60679   1.63260   1.71669   1.74023   1.81039
 Alpha virt. eigenvalues --    1.88026   1.92557   1.93837   1.95412   1.96041
 Alpha virt. eigenvalues --    1.97468   2.00077   2.01004   2.02027   2.02986
 Alpha virt. eigenvalues --    2.05309   2.06571   2.10025   2.12252   2.16198
 Alpha virt. eigenvalues --    2.21039   2.23614   2.25190   2.28057   2.33436
 Alpha virt. eigenvalues --    2.36516   2.38791   2.46281   2.59679   2.77195
 Alpha virt. eigenvalues --    3.13226   3.29511   3.44695   3.59756   3.80644
 Alpha virt. eigenvalues --    3.85788   3.89514
          Condensed to atoms (all electrons):
              1          2          3          4          5          6
     1  O    8.460468   0.168842  -0.085988   0.008689   0.000962  -0.071013
     2  C    0.168842   5.326245   0.197771  -0.114002  -0.048201   0.161149
     3  C   -0.085988   0.197771   5.821180   0.206675  -0.082000  -0.152421
     4  C    0.008689  -0.114002   0.206675   4.990237   0.218944  -0.132505
     5  O    0.000962  -0.048201  -0.082000   0.218944   8.538398   0.188954
     6  C   -0.071013   0.161149  -0.152421  -0.132505   0.188954   5.530726
     7  C    0.003659  -0.086465   0.007589   0.006502  -0.034260   0.176904
     8  O   -0.000080   0.001258   0.000333  -0.000031   0.000259  -0.052939
     9  N    0.000024   0.003393  -0.063051   0.141584  -0.028487   0.003125
    10  C   -0.000007   0.000071  -0.002905  -0.057459   0.001242   0.000006
    11  N    0.000000   0.000000  -0.000086   0.001154  -0.000001   0.000000
    12  O    0.000000  -0.000012  -0.001963   0.000621   0.000025   0.000008
    13  C    0.000000  -0.000039   0.000013  -0.030881   0.003880  -0.000041
    14  C    0.000000   0.000002  -0.000097   0.002199   0.000316  -0.000005
    15  C    0.000000   0.000000   0.000001  -0.000046   0.000000   0.000000
    16  C    0.000000   0.000000   0.000016  -0.000124  -0.000003   0.000000
    17  O    0.000000   0.000000   0.000000   0.000000   0.000000   0.000000
    18  H    0.318080  -0.040427  -0.001033   0.002465  -0.000028   0.001095
    19  H   -0.027972   0.402242  -0.044484   0.005073   0.002154  -0.049214
    20  H    0.002846  -0.041661   0.347877  -0.047720   0.001448   0.007263
    21  H   -0.000216  -0.031465   0.368364  -0.034995   0.002255   0.006018
    22  H    0.007441  -0.003004  -0.079815   0.369631  -0.032656   0.002403
    23  H   -0.000145  -0.051510   0.005458  -0.001511  -0.031923   0.373632
    24  H   -0.000008  -0.008405   0.001961  -0.000179   0.003887  -0.060938
    25  H   -0.000047   0.004713  -0.000160  -0.000096   0.001082  -0.040880
    26  H    0.000005  -0.000115  -0.000016   0.000003  -0.000024   0.005256
    27  H    0.000000   0.000000   0.000000  -0.000013   0.000000   0.000000
    28  H    0.000000   0.000013   0.000029  -0.001312   0.006818  -0.000146
    29  H    0.000000   0.000000   0.000000   0.000000   0.000000   0.000000
    30  H    0.000000   0.000000   0.000000   0.000000   0.000000   0.000000
    31  H    0.000000   0.000000   0.000000   0.000000   0.000000   0.000000
              7          8          9         10         11         12
     1  O    0.003659  -0.000080   0.000024  -0.000007   0.000000   0.000000
     2  C   -0.086465   0.001258   0.003393   0.000071   0.000000  -0.000012
     3  C    0.007589   0.000333  -0.063051  -0.002905  -0.000086  -0.001963
     4  C    0.006502  -0.000031   0.141584  -0.057459   0.001154   0.000621
     5  O   -0.034260   0.000259  -0.028487   0.001242  -0.000001   0.000025
     6  C    0.176904  -0.052939   0.003125   0.000006   0.000000   0.000008
     7  C    5.156024   0.189807  -0.000008   0.000001   0.000000   0.000000
     8  O    0.189807   8.350601   0.000000   0.000000   0.000000   0.000000
     9  N   -0.000008   0.000000   8.078459   0.119352  -0.087302  -0.081685
    10  C    0.000001   0.000000   0.119352   4.058188   0.144016   0.578867
    11  N    0.000000   0.000000  -0.087302   0.144016   7.974356  -0.084885
    12  O    0.000000   0.000000  -0.081685   0.578867  -0.084885   8.238779
    13  C   -0.000015   0.000000   0.153995  -0.079704   0.001159   0.000454
    14  C    0.000000   0.000000  -0.044593   0.010054  -0.149670   0.000033
    15  C    0.000000   0.000000   0.002213   0.000077   0.002846   0.000000
    16  C    0.000000   0.000000  -0.006180  -0.046479   0.053058   0.000240
    17  O    0.000000   0.000000   0.000000   0.000188  -0.078871  -0.000001
    18  H    0.000005  -0.000015  -0.000006  -0.000011   0.000000  -0.000031
    19  H   -0.005650   0.009876  -0.000033  -0.000002   0.000000   0.000000
    20  H   -0.000667  -0.000007  -0.001564   0.000135  -0.000006  -0.000008
    21  H   -0.000179   0.000000  -0.001228   0.002090   0.000018   0.004781
    22  H   -0.000440   0.000001  -0.043273  -0.000642   0.000208   0.010683
    23  H   -0.057968   0.006722  -0.000069   0.000000   0.000000   0.000000
    24  H    0.363978  -0.041150  -0.000010   0.000000   0.000000   0.000000
    25  H    0.374371  -0.036727  -0.000001   0.000000   0.000000   0.000000
    26  H   -0.041004   0.272070   0.000000   0.000000   0.000000   0.000000
    27  H    0.000000   0.000000   0.001741  -0.019653   0.316344  -0.000144
    28  H   -0.000042   0.000000  -0.031936   0.000496  -0.000014  -0.000030
    29  H    0.000000   0.000000   0.000031  -0.000006  -0.000006   0.000000
    30  H    0.000000   0.000000  -0.000026  -0.000004   0.000276   0.000000
    31  H    0.000000   0.000000   0.000008  -0.000002  -0.000032   0.000000
             13         14         15         16         17         18
     1  O    0.000000   0.000000   0.000000   0.000000   0.000000   0.318080
     2  C   -0.000039   0.000002   0.000000   0.000000   0.000000  -0.040427
     3  C    0.000013  -0.000097   0.000001   0.000016   0.000000  -0.001033
     4  C   -0.030881   0.002199  -0.000046  -0.000124   0.000000   0.002465
     5  O    0.003880   0.000316   0.000000  -0.000003   0.000000  -0.000028
     6  C   -0.000041  -0.000005   0.000000   0.000000   0.000000   0.001095
     7  C   -0.000015   0.000000   0.000000   0.000000   0.000000   0.000005
     8  O    0.000000   0.000000   0.000000   0.000000   0.000000  -0.000015
     9  N    0.153995  -0.044593   0.002213  -0.006180   0.000000  -0.000006
    10  C   -0.079704   0.010054   0.000077  -0.046479   0.000188  -0.000011
    11  N    0.001159  -0.149670   0.002846   0.053058  -0.078871   0.000000
    12  O    0.000454   0.000033   0.000000   0.000240  -0.000001  -0.000031
    13  C    4.961591   0.420588  -0.059517  -0.067087   0.003421   0.000001
    14  C    0.420588   6.193539   0.196199   0.028297  -0.116442   0.000000
    15  C   -0.059517   0.196199   5.356508  -0.071193  -0.007555   0.000000
    16  C   -0.067087   0.028297  -0.071193   4.553665   0.612215   0.000000
    17  O    0.003421  -0.116442  -0.007555   0.612215   8.220196   0.000000
    18  H    0.000001   0.000000   0.000000   0.000000   0.000000   0.296469
    19  H    0.000000   0.000000   0.000000   0.000000   0.000000   0.002447
    20  H    0.001613   0.000010   0.000000   0.000000   0.000000   0.000024
    21  H    0.000031   0.000007   0.000000  -0.000003   0.000000   0.000092
    22  H    0.002340   0.000066   0.000000  -0.000018   0.000000   0.003132
    23  H    0.000007   0.000000   0.000000   0.000000   0.000000   0.001080
    24  H    0.000004   0.000000   0.000000   0.000000   0.000000   0.000002
    25  H    0.000000   0.000000   0.000000   0.000000   0.000000   0.000000
    26  H    0.000000   0.000000   0.000000   0.000000   0.000000   0.000001
    27  H   -0.000885   0.005750  -0.000032  -0.020261   0.001424   0.000000
    28  H    0.375426  -0.025174  -0.000946   0.002242  -0.000005   0.000000
    29  H   -0.002590  -0.054700   0.385783   0.004274   0.000202   0.000000
    30  H    0.002443  -0.054286   0.378559   0.000485   0.012445   0.000000
    31  H   -0.002528  -0.072396   0.386753   0.000832   0.000280   0.000000
             19         20         21         22         23         24
     1  O   -0.027972   0.002846  -0.000216   0.007441  -0.000145  -0.000008
     2  C    0.402242  -0.041661  -0.031465  -0.003004  -0.051510  -0.008405
     3  C   -0.044484   0.347877   0.368364  -0.079815   0.005458   0.001961
     4  C    0.005073  -0.047720  -0.034995   0.369631  -0.001511  -0.000179
     5  O    0.002154   0.001448   0.002255  -0.032656  -0.031923   0.003887
     6  C   -0.049214   0.007263   0.006018   0.002403   0.373632  -0.060938
     7  C   -0.005650  -0.000667  -0.000179  -0.000440  -0.057968   0.363978
     8  O    0.009876  -0.000007   0.000000   0.000001   0.006722  -0.041150
     9  N   -0.000033  -0.001564  -0.001228  -0.043273  -0.000069  -0.000010
    10  C   -0.000002   0.000135   0.002090  -0.000642   0.000000   0.000000
    11  N    0.000000  -0.000006   0.000018   0.000208   0.000000   0.000000
    12  O    0.000000  -0.000008   0.004781   0.010683   0.000000   0.000000
    13  C    0.000000   0.001613   0.000031   0.002340   0.000007   0.000004
    14  C    0.000000   0.000010   0.000007   0.000066   0.000000   0.000000
    15  C    0.000000   0.000000   0.000000   0.000000   0.000000   0.000000
    16  C    0.000000   0.000000  -0.000003  -0.000018   0.000000   0.000000
    17  O    0.000000   0.000000   0.000000   0.000000   0.000000   0.000000
    18  H    0.002447   0.000024   0.000092   0.003132   0.001080   0.000002
    19  H    0.442741  -0.000288  -0.000746   0.000174   0.000767  -0.001758
    20  H   -0.000288   0.529991  -0.007837   0.003930  -0.000059   0.001149
    21  H   -0.000746  -0.007837   0.426558   0.001606   0.000033   0.000026
    22  H    0.000174   0.003930   0.001606   0.506718   0.002346   0.000024
    23  H    0.000767  -0.000059   0.000033   0.002346   0.515682   0.004543
    24  H   -0.001758   0.001149   0.000026   0.000024   0.004543   0.587132
    25  H    0.000494   0.000028   0.000001   0.000003  -0.003838  -0.031182
    26  H   -0.000114   0.000000   0.000000   0.000000  -0.000172   0.000099
    27  H    0.000000   0.000000   0.000001   0.000003   0.000000   0.000000
    28  H    0.000000   0.000259   0.000000   0.000200   0.000012   0.000057
    29  H    0.000000   0.000000   0.000000   0.000000   0.000000   0.000000
    30  H    0.000000   0.000000   0.000000   0.000000   0.000000   0.000000
    31  H    0.000000   0.000000   0.000000   0.000000   0.000000   0.000000
             25         26         27         28         29         30
     1  O   -0.000047   0.000005   0.000000   0.000000   0.000000   0.000000
     2  C    0.004713  -0.000115   0.000000   0.000013   0.000000   0.000000
     3  C   -0.000160  -0.000016   0.000000   0.000029   0.000000   0.000000
     4  C   -0.000096   0.000003  -0.000013  -0.001312   0.000000   0.000000
     5  O    0.001082  -0.000024   0.000000   0.006818   0.000000   0.000000
     6  C   -0.040880   0.005256   0.000000  -0.000146   0.000000   0.000000
     7  C    0.374371  -0.041004   0.000000  -0.000042   0.000000   0.000000
     8  O   -0.036727   0.272070   0.000000   0.000000   0.000000   0.000000
     9  N   -0.000001   0.000000   0.001741  -0.031936   0.000031  -0.000026
    10  C    0.000000   0.000000  -0.019653   0.000496  -0.000006  -0.000004
    11  N    0.000000   0.000000   0.316344  -0.000014  -0.000006   0.000276
    12  O    0.000000   0.000000  -0.000144  -0.000030   0.000000   0.000000
    13  C    0.000000   0.000000  -0.000885   0.375426  -0.002590   0.002443
    14  C    0.000000   0.000000   0.005750  -0.025174  -0.054700  -0.054286
    15  C    0.000000   0.000000  -0.000032  -0.000946   0.385783   0.378559
    16  C    0.000000   0.000000  -0.020261   0.002242   0.004274   0.000485
    17  O    0.000000   0.000000   0.001424  -0.000005   0.000202   0.012445
    18  H    0.000000   0.000001   0.000000   0.000000   0.000000   0.000000
    19  H    0.000494  -0.000114   0.000000   0.000000   0.000000   0.000000
    20  H    0.000028   0.000000   0.000000   0.000259   0.000000   0.000000
    21  H    0.000001   0.000000   0.000001   0.000000   0.000000   0.000000
    22  H    0.000003   0.000000   0.000003   0.000200   0.000000   0.000000
    23  H   -0.003838  -0.000172   0.000000   0.000012   0.000000   0.000000
    24  H   -0.031182   0.000099   0.000000   0.000057   0.000000   0.000000
    25  H    0.539192  -0.004954   0.000000   0.000012   0.000000   0.000000
    26  H   -0.004954   0.378258   0.000000   0.000000   0.000000   0.000000
    27  H    0.000000   0.000000   0.286948   0.000003   0.000001   0.000000
    28  H    0.000012   0.000000   0.000003   0.360295   0.000819   0.000008
    29  H    0.000000   0.000000   0.000001   0.000819   0.499396  -0.015828
    30  H    0.000000   0.000000   0.000000   0.000008  -0.015828   0.436128
    31  H    0.000000   0.000000   0.000001   0.000140  -0.021125  -0.024677
             31
     1  O    0.000000
     2  C    0.000000
     3  C    0.000000
     4  C    0.000000
     5  O    0.000000
     6  C    0.000000
     7  C    0.000000
     8  O    0.000000
     9  N    0.000008
    10  C   -0.000002
    11  N   -0.000032
    12  O    0.000000
    13  C   -0.002528
    14  C   -0.072396
    15  C    0.386753
    16  C    0.000832
    17  O    0.000280
    18  H    0.000000
    19  H    0.000000
    20  H    0.000000
    21  H    0.000000
    22  H    0.000000
    23  H    0.000000
    24  H    0.000000
    25  H    0.000000
    26  H    0.000000
    27  H    0.000001
    28  H    0.000140
    29  H   -0.021125
    30  H   -0.024677
    31  H    0.517956
 Mulliken atomic charges:
              1
     1  O   -0.785539
     2  C    0.159611
     3  C   -0.443250
     4  C    0.467093
     5  O   -0.713040
     6  C    0.103564
     7  C   -0.052143
     8  O   -0.699979
     9  N   -1.114472
    10  C    1.292090
    11  N   -1.092563
    12  O   -0.665732
    13  C    0.316324
    14  C   -0.339698
    15  C   -0.569649
    16  C    0.956022
    17  O   -0.647495
    18  H    0.416659
    19  H    0.264294
    20  H    0.203243
    21  H    0.264788
    22  H    0.248937
    23  H    0.236911
    24  H    0.180767
    25  H    0.197989
    26  H    0.390709
    27  H    0.428773
    28  H    0.312773
    29  H    0.203748
    30  H    0.264477
    31  H    0.214789
 Sum of Mulliken atomic charges =   0.00000
 Mulliken charges with hydrogens summed into heavy atoms:
              1
     1  O   -0.368880
     2  C    0.423905
     3  C    0.024780
     4  C    0.716030
     5  O   -0.713040
     6  C    0.340475
     7  C    0.326613
     8  O   -0.309270
     9  N   -1.114472
    10  C    1.292090
    11  N   -0.663790
    12  O   -0.665732
    13  C    0.629097
    14  C   -0.339698
    15  C    0.113365
    16  C    0.956022
    17  O   -0.647495
 Sum of Mulliken charges with hydrogens summed into heavy atoms =   0.00000
 Electronic spatial extent (au):  <R**2>=           4917.4253
 Charge=              0.0000 electrons
 Dipole moment (field-independent basis, Debye):
    X=             -4.1111    Y=              3.7136    Z=             -0.2684  Tot=              5.5465
 Quadrupole moment (field-independent basis, Debye-Ang):
   XX=           -121.4125   YY=            -96.3627   ZZ=            -98.5841
   XY=            -13.4965   XZ=              0.2673   YZ=              3.0615
 Traceless Quadrupole moment (field-independent basis, Debye-Ang):
   XX=            -15.9594   YY=              9.0904   ZZ=              6.8690
   XY=            -13.4965   XZ=              0.2673   YZ=              3.0615
 Octapole moment (field-independent basis, Debye-Ang**2):
  XXX=           -178.1841  YYY=             26.3420  ZZZ=             -1.3908  XYY=            -24.1235
  XXY=             42.9606  XXZ=            -16.5903  XZZ=            -15.4564  YZZ=             -9.6130
  YYZ=             -4.3363  XYZ=            -12.6634
 Hexadecapole moment (field-independent basis, Debye-Ang**3):
 XXXX=          -5488.9030 YYYY=          -1153.3526 ZZZZ=           -222.4447 XXXY=           -476.6416
 XXXZ=            -44.9632 YYYX=            -92.5262 YYYZ=              7.5201 ZZZX=              6.1842
 ZZZY=              8.9594 XXYY=           -756.0315 XXZZ=           -812.3529 YYZZ=           -220.3281
 XXYZ=             33.6610 YYXZ=             20.2275 ZZXY=             -2.4617
 N-N= 1.300555166572D+03 E-N=-4.631603034110D+03  KE= 8.642505482849D+02
 Calling FoFJK, ICntrl=      2127 FMM=F ISym2X=0 I1Cent= 0 IOpClX= 0 NMat=1 NMatS=1 NMatT=0.
 ***** Axes restored to original set *****
 -------------------------------------------------------------------
 Center     Atomic                   Forces (Hartrees/Bohr)
 Number     Number              X              Y              Z
 -------------------------------------------------------------------
      1        8           0.141959264    0.008094041   -0.143461761
      2        6          -0.052769328    0.044857877   -0.036750789
      3        6          -0.008103517    0.014870346   -0.020247555
      4        6           0.014903356   -0.069464559   -0.022895899
      5        8          -0.050505988    0.045805730    0.035945660
      6        6           0.095433202    0.038012700    0.001972182
      7        6          -0.032438425    0.029855849    0.000914133
      8        8           0.038864577   -0.002589125   -0.003858857
      9        7          -0.038405821   -0.009270587    0.009551590
     10        6           0.061392125   -0.113404005    0.009523078
     11        7          -0.023253586   -0.020044745   -0.001805873
     12        8          -0.006981130    0.036480768   -0.002158556
     13        6          -0.049968868    0.054085238   -0.006003986
     14        6           0.089364485    0.042974933    0.016782596
     15        6          -0.022791095    0.003922818   -0.025121211
     16        6          -0.127028319   -0.012881042   -0.011952269
     17        8           0.051578238   -0.006898286    0.004845102
     18        1          -0.072614886   -0.104842851    0.162874060
     19        1          -0.000384802   -0.010121535    0.019213281
     20        1          -0.000396907   -0.018900728    0.008352454
     21        1           0.001009012    0.010642451   -0.001353584
     22        1          -0.014534208    0.021830148   -0.006074923
     23        1          -0.017734010   -0.001747360   -0.017382383
     24        1          -0.000008751    0.004841083    0.022133712
     25        1          -0.013610500   -0.008469315   -0.012204897
     26        1          -0.008327111   -0.012545145    0.000695287
     27        1           0.031673256    0.038195632    0.001863762
     28        1          -0.002479254   -0.011462370    0.001843951
     29        1          -0.006260803   -0.005837780   -0.007580161
     30        1           0.024786521    0.007236395   -0.000768263
     31        1          -0.002366725    0.006773426    0.023110119
 -------------------------------------------------------------------
 Cartesian Forces:  Max     0.162874060 RMS     0.044005773

 GradGradGradGradGradGradGradGradGradGradGradGradGradGradGradGradGradGrad
 Berny optimization.
 Internal  Forces:  Max     0.205317096 RMS     0.023920920
 Search for a local minimum.
 Step number   1 out of a maximum of  183
 All quantities printed in internal units (Hartrees-Bohrs-Radians)
 Mixed Optimization -- RFO/linear search
 Second derivative matrix not updated -- first step.
 ITU=  0
     Eigenvalues ---    0.00355   0.00605   0.00899   0.01356   0.01429
     Eigenvalues ---    0.01702   0.01781   0.01978   0.02297   0.02365
     Eigenvalues ---    0.02414   0.02453   0.02463   0.02520   0.02544
     Eigenvalues ---    0.02991   0.03162   0.04089   0.05151   0.05328
     Eigenvalues ---    0.05552   0.05598   0.05656   0.05841   0.05855
     Eigenvalues ---    0.06012   0.06254   0.06807   0.07169   0.07410
     Eigenvalues ---    0.07767   0.08121   0.08390   0.11208   0.11485
     Eigenvalues ---    0.13499   0.14503   0.16000   0.16000   0.16000
     Eigenvalues ---    0.16000   0.16000   0.16000   0.16000   0.16218
     Eigenvalues ---    0.18022   0.20723   0.22156   0.23000   0.23950
     Eigenvalues ---    0.25000   0.25000   0.25000   0.25000   0.25000
     Eigenvalues ---    0.26738   0.27775   0.29328   0.29844   0.31451
     Eigenvalues ---    0.31790   0.31897   0.31988   0.32089   0.32343
     Eigenvalues ---    0.33199   0.33453   0.33868   0.34249   0.35050
     Eigenvalues ---    0.35554   0.38710   0.42478   0.45735   0.45752
     Eigenvalues ---    0.46782   0.47695   0.48430   0.51105   0.51703
     Eigenvalues ---    0.53847   0.57702   0.58092   0.66706   0.77747
     Eigenvalues ---    0.81278   0.95833
 RFO step:  Lambda=-1.45525934D-01 EMin= 3.55435619D-03
 Linear search not attempted -- first point.
 Maximum step size (   0.300) exceeded in Quadratic search.
    -- Step size scaled by   0.616
 Iteration  1 RMS(Cart)=  0.07241314 RMS(Int)=  0.00117029
 Iteration  2 RMS(Cart)=  0.00250340 RMS(Int)=  0.00016489
 Iteration  3 RMS(Cart)=  0.00000210 RMS(Int)=  0.00016487
 Iteration  4 RMS(Cart)=  0.00000000 RMS(Int)=  0.00016487
 Variable       Old X    -DE/DX   Delta X   Delta X   Delta X     New X
                                 (Linear)    (Quad)   (Total)
    R1        2.45997   0.11212   0.00000   0.08493   0.08493   2.54491
    R2        1.57055   0.20532   0.00000   0.11449   0.11449   1.68505
    R3        2.90067   0.02510   0.00000   0.03045   0.03062   2.93129
    R4        2.85579   0.04464   0.00000   0.05998   0.06012   2.91591
    R5        2.07554  -0.01799   0.00000  -0.02286  -0.02286   2.05268
    R6        2.90133   0.00951   0.00000   0.01115   0.01102   2.91235
    R7        2.10221  -0.01894   0.00000  -0.02486  -0.02486   2.07735
    R8        2.05593  -0.00953   0.00000  -0.01182  -0.01182   2.04411
    R9        2.59296   0.03885   0.00000   0.03890   0.03877   2.63173
   R10        2.68319   0.02027   0.00000   0.02188   0.02188   2.70507
   R11        2.10865  -0.02405   0.00000  -0.03182  -0.03182   2.07684
   R12        2.58203   0.05695   0.00000   0.05624   0.05616   2.63820
   R13        2.89323   0.00028   0.00000   0.00039   0.00039   2.89363
   R14        2.11230  -0.02355   0.00000  -0.03128  -0.03128   2.08102
   R15        2.64412   0.03294   0.00000   0.03362   0.03362   2.67775
   R16        2.10682  -0.01850   0.00000  -0.02442  -0.02442   2.08241
   R17        2.08703  -0.01348   0.00000  -0.01738  -0.01738   2.06966
   R18        1.84885  -0.01505   0.00000  -0.01398  -0.01398   1.83487
   R19        2.58048   0.00981   0.00000   0.00881   0.00897   2.58945
   R20        2.52230   0.04417   0.00000   0.03604   0.03609   2.55839
   R21        2.51861   0.02798   0.00000   0.02436   0.02447   2.54307
   R22        2.37233  -0.03550   0.00000  -0.02280  -0.02280   2.34953
   R23        2.53020   0.04607   0.00000   0.04064   0.04059   2.57079
   R24        2.00045  -0.04897   0.00000  -0.05659  -0.05659   1.94386
   R25        2.61004  -0.04422   0.00000  -0.04396  -0.04407   2.56597
   R26        2.04785  -0.01109   0.00000  -0.01362  -0.01362   2.03422
   R27        2.81563   0.01443   0.00000   0.01850   0.01850   2.83413
   R28        2.59860   0.06328   0.00000   0.06068   0.06052   2.65912
   R29        2.06912  -0.01096   0.00000  -0.01383  -0.01383   2.05529
   R30        2.11032  -0.02515   0.00000  -0.03333  -0.03333   2.07699
   R31        2.11860  -0.02083   0.00000  -0.02787  -0.02787   2.09074
   R32        2.39154  -0.05152   0.00000  -0.03436  -0.03436   2.35718
    A1        2.40826  -0.03966   0.00000  -0.07991  -0.07991   2.32835
    A2        1.88016   0.01048   0.00000   0.02969   0.02941   1.90956
    A3        1.91085   0.01266   0.00000   0.03159   0.03132   1.94217
    A4        1.98311  -0.01312   0.00000  -0.03538  -0.03515   1.94796
    A5        1.75839  -0.00314   0.00000  -0.00660  -0.00693   1.75146
    A6        1.94099   0.00079   0.00000   0.00100   0.00100   1.94200
    A7        1.97537  -0.00540   0.00000  -0.01396  -0.01388   1.96150
    A8        1.72076   0.01233   0.00000   0.01107   0.01091   1.73167
    A9        1.91147  -0.00023   0.00000   0.00420   0.00431   1.91578
   A10        1.96367  -0.00307   0.00000   0.00005  -0.00001   1.96366
   A11        1.88265  -0.00339   0.00000  -0.00502  -0.00506   1.87759
   A12        1.96336  -0.00239   0.00000   0.00248   0.00251   1.96588
   A13        2.00057  -0.00146   0.00000  -0.00985  -0.00988   1.99069
   A14        1.76892   0.00341   0.00000   0.00627   0.00640   1.77532
   A15        1.95513   0.01746   0.00000   0.03311   0.03346   1.98858
   A16        1.84230  -0.00040   0.00000   0.00888   0.00874   1.85104
   A17        2.00312  -0.01839   0.00000  -0.03803  -0.03819   1.96493
   A18        1.96793   0.00414   0.00000   0.00525   0.00491   1.97284
   A19        1.91594  -0.00341   0.00000  -0.00875  -0.00936   1.90658
   A20        1.89381  -0.00517   0.00000  -0.00007  -0.00039   1.89342
   A21        1.88919  -0.00622   0.00000  -0.00856  -0.00821   1.88098
   A22        1.85334   0.02794   0.00000   0.05229   0.05230   1.90564
   A23        1.92807  -0.00922   0.00000  -0.01861  -0.01913   1.90894
   A24        1.96966  -0.01610   0.00000  -0.03060  -0.03055   1.93911
   A25        1.98751   0.00436   0.00000   0.00032   0.00012   1.98762
   A26        1.83155   0.00103   0.00000   0.00893   0.00893   1.84048
   A27        1.85785  -0.01344   0.00000  -0.02003  -0.01996   1.83789
   A28        1.89540   0.00291   0.00000   0.00291   0.00296   1.89836
   A29        1.95090  -0.00222   0.00000  -0.00820  -0.00813   1.94277
   A30        1.89748   0.00826   0.00000   0.01893   0.01889   1.91637
   A31        1.88361   0.01192   0.00000   0.02667   0.02658   1.91019
   A32        1.97434  -0.00750   0.00000  -0.01948  -0.01972   1.95462
   A33        1.96162  -0.00016   0.00000  -0.00032  -0.00032   1.96129
   A34        2.05034  -0.00815   0.00000  -0.01093  -0.01104   2.03930
   A35        2.20839  -0.02487   0.00000  -0.03696  -0.03707   2.17133
   A36        2.02445   0.03302   0.00000   0.04788   0.04811   2.07256
   A37        2.14074  -0.04484   0.00000  -0.06935  -0.06908   2.07167
   A38        2.08899   0.00924   0.00000   0.01416   0.01402   2.10301
   A39        2.05345   0.03561   0.00000   0.05520   0.05506   2.10851
   A40        2.12543   0.02407   0.00000   0.04399   0.04404   2.16948
   A41        2.11093  -0.02028   0.00000  -0.03860  -0.03863   2.07230
   A42        2.04682  -0.00379   0.00000  -0.00539  -0.00542   2.04141
   A43        2.14158   0.00586   0.00000   0.00506   0.00501   2.14659
   A44        2.04899  -0.00686   0.00000  -0.01045  -0.01043   2.03857
   A45        2.09261   0.00100   0.00000   0.00539   0.00542   2.09803
   A46        2.12519   0.00234   0.00000   0.00447   0.00461   2.12980
   A47        2.08085  -0.00518   0.00000  -0.00972  -0.01000   2.07085
   A48        2.07714   0.00284   0.00000   0.00525   0.00539   2.08253
   A49        1.96459  -0.00056   0.00000  -0.00260  -0.00265   1.96194
   A50        1.89988   0.00005   0.00000  -0.00020  -0.00031   1.89957
   A51        1.84256   0.01827   0.00000   0.03837   0.03824   1.88080
   A52        1.95847  -0.00461   0.00000  -0.01214  -0.01219   1.94628
   A53        1.94825  -0.00962   0.00000  -0.01921  -0.01928   1.92897
   A54        1.84248  -0.00225   0.00000  -0.00108  -0.00129   1.84119
   A55        2.05330  -0.01293   0.00000  -0.01786  -0.01808   2.03522
   A56        2.10373  -0.00400   0.00000  -0.00735  -0.00724   2.09649
   A57        2.12615   0.01693   0.00000   0.02521   0.02532   2.15147
    D1       -1.01255  -0.00242   0.00000  -0.00722  -0.00779  -1.02033
    D2        0.88478   0.00478   0.00000   0.01390   0.01437   0.89915
    D3        3.11224  -0.00232   0.00000  -0.00653  -0.00644   3.10581
    D4        1.41509   0.00846   0.00000   0.02559   0.02562   1.44071
    D5       -2.90448   0.01014   0.00000   0.02628   0.02631  -2.87817
    D6       -0.65799   0.00559   0.00000   0.01656   0.01659  -0.64140
    D7       -0.58594  -0.00791   0.00000  -0.01708  -0.01706  -0.60301
    D8        1.37767  -0.00623   0.00000  -0.01639  -0.01638   1.36130
    D9       -2.65902  -0.01078   0.00000  -0.02611  -0.02609  -2.68512
   D10       -2.68431  -0.00023   0.00000   0.00239   0.00240  -2.68191
   D11       -0.72070   0.00145   0.00000   0.00308   0.00309  -0.71761
   D12        1.52579  -0.00310   0.00000  -0.00664  -0.00663   1.51916
   D13       -1.78370  -0.00846   0.00000  -0.01885  -0.01894  -1.80264
   D14        2.38008  -0.00178   0.00000  -0.00746  -0.00767   2.37241
   D15        0.40330  -0.01343   0.00000  -0.03680  -0.03667   0.36663
   D16        0.19411   0.00636   0.00000   0.02266   0.02261   0.21671
   D17       -1.92530   0.01304   0.00000   0.03406   0.03388  -1.89142
   D18        2.38111   0.00139   0.00000   0.00471   0.00488   2.38599
   D19        2.26770   0.00298   0.00000   0.01361   0.01366   2.28136
   D20        0.14830   0.00966   0.00000   0.02500   0.02493   0.17322
   D21       -1.82848  -0.00199   0.00000  -0.00434  -0.00407  -1.83255
   D22        0.81191   0.00489   0.00000   0.00642   0.00640   0.81831
   D23        2.95571  -0.00616   0.00000  -0.01840  -0.01839   2.93732
   D24       -1.24296  -0.00096   0.00000  -0.00533  -0.00513  -1.24809
   D25       -1.17450   0.00101   0.00000  -0.00127  -0.00131  -1.17582
   D26        0.96930  -0.01003   0.00000  -0.02610  -0.02610   0.94320
   D27        3.05382  -0.00484   0.00000  -0.01302  -0.01284   3.04097
   D28        2.88522   0.00724   0.00000   0.01362   0.01355   2.89877
   D29       -1.25416  -0.00380   0.00000  -0.01121  -0.01124  -1.26540
   D30        0.83036   0.00139   0.00000   0.00187   0.00202   0.83238
   D31       -0.73891   0.00810   0.00000   0.01638   0.01662  -0.72229
   D32       -2.84932  -0.00596   0.00000  -0.00853  -0.00833  -2.85766
   D33        1.22257   0.01108   0.00000   0.03203   0.03217   1.25474
   D34        1.44818   0.00084   0.00000   0.00520   0.00541   1.45359
   D35       -1.69365   0.00075   0.00000   0.00486   0.00507  -1.68858
   D36       -2.83026   0.00525   0.00000   0.01121   0.01075  -2.81951
   D37        0.31110   0.00516   0.00000   0.01088   0.01040   0.32150
   D38       -0.59255  -0.00712   0.00000  -0.02039  -0.02013  -0.61268
   D39        2.54881  -0.00721   0.00000  -0.02073  -0.02047   2.52833
   D40        0.34811  -0.01244   0.00000  -0.02940  -0.02943   0.31867
   D41        2.39406   0.00857   0.00000   0.01164   0.01163   2.40570
   D42       -1.80336   0.00111   0.00000   0.00078   0.00098  -1.80238
   D43       -1.07470  -0.00006   0.00000   0.00080   0.00046  -1.07424
   D44        0.96551   0.00396   0.00000   0.01381   0.01343   0.97894
   D45       -3.12741  -0.00509   0.00000  -0.01479  -0.01515   3.14063
   D46        3.14149  -0.00127   0.00000  -0.00495  -0.00479   3.13670
   D47       -1.10149   0.00275   0.00000   0.00806   0.00818  -1.09331
   D48        1.08878  -0.00630   0.00000  -0.02054  -0.02040   1.06838
   D49        0.96776   0.00246   0.00000   0.00723   0.00747   0.97523
   D50        3.00797   0.00649   0.00000   0.02025   0.02044   3.02841
   D51       -1.08495  -0.00256   0.00000  -0.00835  -0.00814  -1.09309
   D52       -2.82499   0.00084   0.00000   0.00094   0.00098  -2.82401
   D53        1.41937   0.00040   0.00000  -0.00137  -0.00117   1.41821
   D54       -0.72821  -0.00280   0.00000  -0.00552  -0.00576  -0.73397
   D55        3.14150   0.00022   0.00000   0.00080   0.00077  -3.14092
   D56       -0.00012  -0.00036   0.00000  -0.00130  -0.00130  -0.00142
   D57        0.00011   0.00030   0.00000   0.00111   0.00110   0.00121
   D58       -3.14151  -0.00027   0.00000  -0.00099  -0.00096   3.14072
   D59       -3.14150  -0.00032   0.00000  -0.00113  -0.00115   3.14053
   D60        0.00024  -0.00068   0.00000  -0.00244  -0.00245  -0.00221
   D61       -0.00014  -0.00041   0.00000  -0.00148  -0.00150  -0.00164
   D62       -3.14159  -0.00077   0.00000  -0.00278  -0.00281   3.13879
   D63       -0.00002  -0.00006   0.00000  -0.00023  -0.00023  -0.00025
   D64       -3.14159  -0.00024   0.00000  -0.00089  -0.00088   3.14072
   D65       -3.14159   0.00050   0.00000   0.00183   0.00184  -3.13974
   D66        0.00003   0.00032   0.00000   0.00117   0.00119   0.00122
   D67       -0.00004  -0.00008   0.00000  -0.00032  -0.00030  -0.00034
   D68       -3.14154  -0.00013   0.00000  -0.00046  -0.00046   3.14119
   D69        3.14153   0.00009   0.00000   0.00031   0.00034  -3.14132
   D70        0.00003   0.00005   0.00000   0.00017   0.00018   0.00021
   D71       -3.14151   0.00075   0.00000   0.00275   0.00272  -3.13879
   D72        0.00008   0.00028   0.00000   0.00098   0.00096   0.00104
   D73       -0.00007   0.00111   0.00000   0.00408   0.00407   0.00400
   D74        3.14152   0.00065   0.00000   0.00232   0.00230  -3.13936
   D75       -0.62006  -0.00172   0.00000  -0.00446  -0.00448  -0.62454
   D76       -2.80282   0.00461   0.00000   0.01325   0.01331  -2.78951
   D77        1.50945  -0.00177   0.00000  -0.00417  -0.00424   1.50521
   D78        2.52153  -0.00125   0.00000  -0.00270  -0.00270   2.51883
   D79        0.33877   0.00507   0.00000   0.01501   0.01509   0.35386
   D80       -1.63215  -0.00130   0.00000  -0.00241  -0.00246  -1.63462
   D81        0.00001  -0.00002   0.00000  -0.00004  -0.00005  -0.00004
   D82        3.14151   0.00002   0.00000   0.00011   0.00011  -3.14156
   D83       -3.14157  -0.00047   0.00000  -0.00175  -0.00177   3.13984
   D84       -0.00008  -0.00043   0.00000  -0.00161  -0.00160  -0.00168
         Item               Value     Threshold  Converged?
 Maximum Force            0.205317     0.000450     NO 
 RMS     Force            0.023921     0.000300     NO 
 Maximum Displacement     0.302793     0.001800     NO 
 RMS     Displacement     0.072734     0.001200     NO 
 Predicted change in Energy=-6.960514D-02
 GradGradGradGradGradGradGradGradGradGradGradGradGradGradGradGradGradGrad

                          Input orientation:                          
 ---------------------------------------------------------------------
 Center     Atomic      Atomic             Coordinates (Angstroms)
 Number     Number       Type             X           Y           Z
 ---------------------------------------------------------------------
      1          8           0        3.132515   -1.867940    0.071524
      2          6           0        2.643784   -0.751793   -0.502040
      3          6           0        1.180060   -1.001348   -0.950787
      4          6           0        0.464389   -0.750820    0.390926
      5          8           0        1.059934    0.435580    0.811955
      6          6           0        2.427558    0.364946    0.540594
      7          6           0        2.946358    1.689578   -0.025886
      8          8           0        4.330837    1.484819   -0.247665
      9          7           0       -0.958515   -0.642006    0.278762
     10          6           0       -1.668859   -1.813586    0.256898
     11          7           0       -3.009185   -1.754768    0.151666
     12          8           0       -1.083318   -2.907903    0.330750
     13          6           0       -1.631964    0.529472    0.195139
     14          6           0       -2.983811    0.599152    0.088285
     15          6           0       -3.707706    1.909210   -0.006538
     16          6           0       -3.721364   -0.598969    0.064328
     17          8           0       -4.964532   -0.635446   -0.031172
     18          1           0        2.878705   -2.358714    0.771401
     19          1           0        3.261118   -0.426603   -1.334533
     20          1           0        0.865077   -0.211621   -1.647600
     21          1           0        1.026590   -2.005167   -1.323422
     22          1           0        0.712586   -1.607906    1.032516
     23          1           0        3.048146    0.161955    1.427367
     24          1           0        2.440089    1.887803   -0.984385
     25          1           0        2.808669    2.508855    0.687782
     26          1           0        4.818423    2.319809   -0.336210
     27          1           0       -3.542926   -2.633938    0.134417
     28          1           0       -1.043301    1.430435    0.217883
     29          1           0       -3.241686    2.685063    0.596604
     30          1           0       -4.758523    1.755320    0.276510
     31          1           0       -3.729146    2.206631   -1.071966
 ---------------------------------------------------------------------
                    Distance matrix (angstroms):
                    1          2          3          4          5
     1  O    0.000000
     2  C    1.346706   0.000000
     3  C    2.368160   1.551173   0.000000
     4  C    2.910133   2.355239   1.541150   0.000000
     5  O    3.185912   2.375925   2.277378   1.392653   0.000000
     6  C    2.388048   1.543031   2.376389   2.263043   1.396073
     7  C    3.563716   2.505706   3.349078   3.505629   2.415178
     8  O    3.574752   2.813057   4.074653   4.511685   3.594789
     9  N    4.275791   3.687582   2.492874   1.431460   2.349387
    10  C    4.805259   4.505805   3.199152   2.387087   3.579546
    11  N    6.143266   5.778352   4.396911   3.623655   4.668119
    12  O    4.349939   4.385617   3.224929   2.655565   4.000495
    13  C    5.335084   4.517712   3.400593   2.464178   2.763258
    14  C    6.595171   5.817505   4.580294   3.715387   4.111245
    15  C    7.814191   6.904194   5.766560   4.963881   5.056868
    16  C    6.970366   6.392124   5.021586   4.201221   4.948742
    17  O    8.190956   7.623761   6.223792   5.446528   6.176743
    18  H    0.891688   2.063743   2.773764   2.925578   3.334314
    19  H    2.017669   1.086229   2.192805   3.302122   3.193114
    20  H    3.292424   2.183551   1.099287   2.146363   2.550735
    21  H    2.529749   2.204753   1.081695   2.197373   3.243176
    22  H    2.616712   2.611000   2.126014   1.099016   2.084498
    23  H    2.442519   2.172799   3.240159   2.929704   2.099188
    24  H    3.962323   2.691025   3.152141   3.571722   2.690840
    25  H    4.431815   3.474865   4.202237   4.026071   2.715136
    26  H    4.532745   3.767134   4.964421   5.377276   4.358308
    27  H    6.719541   6.497918   5.113670   4.435145   5.573807
    28  H    5.323359   4.344538   3.496097   2.657245   2.401304
    29  H    7.850860   6.903460   5.961199   5.057924   4.859063
    30  H    8.685535   7.854038   6.661249   5.794190   5.990230
    31  H    8.061768   7.049208   5.865673   5.335945   5.442525
                    6          7          8          9         10
     6  C    0.000000
     7  C    1.531242   0.000000
     8  O    2.344769   1.417002   0.000000
     9  N    3.542315   4.558193   5.725186   0.000000
    10  C    4.648346   5.801064   6.865159   1.370280   0.000000
    11  N    5.848302   6.882117   8.033077   2.336588   1.345737
    12  O    4.804354   6.123912   6.995973   2.269926   1.243319
    13  C    4.077514   4.728184   6.055061   1.353841   2.344162
    14  C    5.435288   6.030669   7.375727   2.382977   2.752968
    15  C    6.350242   6.657716   8.053349   3.761403   4.252705
    16  C    6.242212   7.050113   8.323308   2.771493   2.392729
    17  O    7.481357   8.245480   9.536576   4.017994   3.511760
[...]
 Alpha virt. eigenvalues --    1.12399   1.14437   1.15628   1.17941   1.20845
 Alpha virt. eigenvalues --    1.21639   1.22874   1.28541   1.29663   1.32745
 Alpha virt. eigenvalues --    1.34415   1.35619   1.37895   1.38680   1.40487
 Alpha virt. eigenvalues --    1.40768   1.41926   1.43546   1.45823   1.47482
 Alpha virt. eigenvalues --    1.51455   1.53797   1.55001   1.58178   1.59162
 Alpha virt. eigenvalues --    1.61003   1.62295   1.63828   1.67997   1.70926
 Alpha virt. eigenvalues --    1.72279   1.73415   1.74669   1.77539   1.78246
 Alpha virt. eigenvalues --    1.78756   1.78839   1.79702   1.80830   1.82929
 Alpha virt. eigenvalues --    1.84519   1.85414   1.86116   1.87260   1.88116
 Alpha virt. eigenvalues --    1.88786   1.89642   1.90135   1.92968   1.94418
 Alpha virt. eigenvalues --    1.96434   1.97551   1.99714   1.99825   2.01159
 Alpha virt. eigenvalues --    2.02544   2.04540   2.06713   2.07541   2.10329
 Alpha virt. eigenvalues --    2.11915   2.13113   2.15036   2.16751   2.17848
 Alpha virt. eigenvalues --    2.20916   2.21260   2.25221   2.28624   2.28902
 Alpha virt. eigenvalues --    2.31559   2.32277   2.34294   2.34734   2.37512
 Alpha virt. eigenvalues --    2.38064   2.39190   2.42590   2.44062   2.45199
 Alpha virt. eigenvalues --    2.46731   2.49033   2.49961   2.52981   2.54908
 Alpha virt. eigenvalues --    2.59495   2.61003   2.62232   2.64456   2.65341
 Alpha virt. eigenvalues --    2.66668   2.68564   2.71140   2.76888   2.78368
 Alpha virt. eigenvalues --    2.81361   2.83852   2.87751   2.88010   2.89549
 Alpha virt. eigenvalues --    2.92023   2.97858   2.99489   3.03364   3.06160
 Alpha virt. eigenvalues --    3.26605   3.41172   3.73313   3.84141   3.97274
 Alpha virt. eigenvalues --    3.99882   4.02647   4.13979   4.14893   4.20977
 Alpha virt. eigenvalues --    4.28650   4.30915   4.35280   4.46162   4.47220
 Alpha virt. eigenvalues --    4.57867   4.63759   4.66059   4.72032
          Condensed to atoms (all electrons):
              1          2          3          4          5          6
     1  O    8.238465   0.262645  -0.051280   0.003664  -0.001179  -0.036662
     2  C    0.262645   4.855625   0.313552  -0.049332  -0.035619   0.322959
     3  C   -0.051280   0.313552   5.310176   0.328474  -0.054882  -0.065422
     4  C    0.003664  -0.049332   0.328474   4.680567   0.248249  -0.059869
     5  O   -0.001179  -0.035619  -0.054882   0.248249   8.292051   0.218207
     6  C   -0.036662   0.322959  -0.065422  -0.059869   0.218207   4.989396
     7  C    0.003473  -0.029321  -0.002786   0.002095  -0.041740   0.305862
     8  O   -0.000046   0.000152   0.000284  -0.000060   0.001164  -0.047782
     9  N    0.000050   0.002713  -0.048275   0.236772  -0.053546   0.004100
    10  C   -0.000005   0.000346  -0.004618  -0.021527   0.001900   0.000015
    11  N    0.000000   0.000002  -0.000219   0.003341  -0.000031   0.000002
    12  O    0.000000   0.000273   0.000274   0.009156   0.000192  -0.000006
    13  C    0.000001  -0.000016   0.001452  -0.031561   0.002310  -0.000232
    14  C    0.000000   0.000002  -0.000146   0.003450   0.001760  -0.000031
    15  C    0.000000   0.000000   0.000001  -0.000113   0.000000   0.000001
    16  C    0.000000   0.000000   0.000018   0.000210  -0.000019   0.000000
    17  O    0.000000   0.000000   0.000000   0.000002   0.000000   0.000000
    18  H    0.236934  -0.034843  -0.007539   0.006035   0.002251  -0.004353
    19  H   -0.038547   0.383502  -0.041001   0.005994   0.003083  -0.048700
    20  H    0.003309  -0.024837   0.343531  -0.033663  -0.000035   0.003717
    21  H    0.000512  -0.023925   0.357202  -0.021678   0.002855   0.005653
    22  H    0.001430  -0.001243  -0.053711   0.388119  -0.041697   0.002550
    23  H    0.002526  -0.045244   0.006918   0.002435  -0.035340   0.367962
    24  H    0.000017  -0.013074   0.003382   0.001248   0.002048  -0.036758
    25  H   -0.000076   0.005801  -0.000203  -0.000204   0.003053  -0.029805
    26  H    0.000003   0.000141  -0.000036   0.000004  -0.000105   0.005458
    27  H    0.000000   0.000000   0.000001  -0.000092   0.000000   0.000000
    28  H   -0.000001   0.000196   0.000677  -0.006708   0.016610  -0.002094
    29  H    0.000000   0.000000   0.000000  -0.000001  -0.000003   0.000000
    30  H    0.000000   0.000000   0.000000   0.000003   0.000000   0.000000
    31  H    0.000000   0.000000   0.000000   0.000001   0.000000   0.000000
              7          8          9         10         11         12
     1  O    0.003473  -0.000046   0.000050  -0.000005   0.000000   0.000000
     2  C   -0.029321   0.000152   0.002713   0.000346   0.000002   0.000273
     3  C   -0.002786   0.000284  -0.048275  -0.004618  -0.000219   0.000274
     4  C    0.002095  -0.000060   0.236772  -0.021527   0.003341   0.009156
     5  O   -0.041740   0.001164  -0.053546   0.001900  -0.000031   0.000192
     6  C    0.305862  -0.047782   0.004100   0.000015   0.000002  -0.000006
     7  C    4.952690   0.227658   0.000670  -0.000004   0.000000   0.000000
     8  O    0.227658   8.253398  -0.000001   0.000000   0.000000   0.000000
     9  N    0.000670  -0.000001   7.216878   0.241750  -0.093715  -0.098947
    10  C   -0.000004   0.000000   0.241750   4.175875   0.268439   0.593593
    11  N    0.000000   0.000000  -0.093715   0.268439   7.367494  -0.080770
    12  O    0.000000   0.000000  -0.098947   0.593593  -0.080770   8.082631
    13  C   -0.000435   0.000007   0.281932  -0.031067  -0.025115   0.001592
    14  C   -0.000021   0.000000  -0.020385  -0.005458  -0.092544   0.000341
    15  C   -0.000003   0.000000   0.004433   0.000337   0.006469   0.000001
    16  C    0.000000   0.000000  -0.017825  -0.009806   0.181545   0.000634
    17  O    0.000000   0.000000   0.000008   0.001467  -0.096299  -0.000020
    18  H    0.000247  -0.000010   0.000067  -0.000011   0.000000  -0.000003
    19  H   -0.002794   0.009607  -0.000075  -0.000004   0.000000   0.000000
    20  H   -0.000688   0.000010  -0.003085   0.000083  -0.000130  -0.000573
    21  H   -0.000164  -0.000003  -0.000311   0.001197   0.000047   0.004868
    22  H   -0.000280   0.000002  -0.066764  -0.001126   0.000014   0.008019
    23  H   -0.049809   0.006695  -0.000204   0.000003   0.000000   0.000000
    24  H    0.353914  -0.036792  -0.000421   0.000013  -0.000001   0.000000
    25  H    0.353515  -0.034594  -0.000058  -0.000001   0.000000   0.000000
    26  H   -0.018334   0.234094   0.000000   0.000000   0.000000   0.000000
    27  H    0.000000   0.000000   0.005176  -0.013685   0.273383   0.004113
    28  H    0.000373   0.000006  -0.050894   0.002239  -0.000643  -0.000116
    29  H   -0.000002   0.000000   0.000083  -0.000023  -0.000056   0.000000
    30  H    0.000000   0.000000  -0.000047  -0.000008   0.000026   0.000000
    31  H    0.000000   0.000000  -0.000054  -0.000006   0.000026   0.000000
             13         14         15         16         17         18
     1  O    0.000001   0.000000   0.000000   0.000000   0.000000   0.236934
     2  C   -0.000016   0.000002   0.000000   0.000000   0.000000  -0.034843
     3  C    0.001452  -0.000146   0.000001   0.000018   0.000000  -0.007539
     4  C   -0.031561   0.003450  -0.000113   0.000210   0.000002   0.006035
     5  O    0.002310   0.001760   0.000000  -0.000019   0.000000   0.002251
     6  C   -0.000232  -0.000031   0.000001   0.000000   0.000000  -0.004353
     7  C   -0.000435  -0.000021  -0.000003   0.000000   0.000000   0.000247
     8  O    0.000007   0.000000   0.000000   0.000000   0.000000  -0.000010
     9  N    0.281932  -0.020385   0.004433  -0.017825   0.000008   0.000067
    10  C   -0.031067  -0.005458   0.000337  -0.009806   0.001467  -0.000011
    11  N   -0.025115  -0.092544   0.006469   0.181545  -0.096299   0.000000
    12  O    0.001592   0.000341   0.000001   0.000634  -0.000020  -0.000003
    13  C    4.949796   0.519336  -0.058803  -0.008265   0.004031  -0.000001
    14  C    0.519336   5.086632   0.374671   0.308852  -0.099386   0.000000
    15  C   -0.058803   0.374671   5.130684  -0.044201   0.003813   0.000000
    16  C   -0.008265   0.308852  -0.044201   4.381505   0.623011   0.000000
    17  O    0.004031  -0.099386   0.003813   0.623011   8.052847   0.000000
    18  H   -0.000001   0.000000   0.000000   0.000000   0.000000   0.398064
    19  H   -0.000010   0.000000   0.000000   0.000000   0.000000   0.006892
    20  H    0.001856  -0.000209   0.000000   0.000023   0.000000  -0.000001
    21  H   -0.000099   0.000012   0.000000  -0.000003   0.000000  -0.000305
    22  H    0.004021   0.000078   0.000002  -0.000029   0.000000   0.000628
    23  H    0.000033   0.000002   0.000000   0.000000   0.000000  -0.000202
    24  H    0.001416   0.000090   0.000003  -0.000001   0.000000   0.000008
    25  H   -0.000744   0.000020  -0.000004   0.000000   0.000000  -0.000003
    26  H    0.000000   0.000000   0.000000   0.000000   0.000000   0.000001
    27  H   -0.000261   0.007275  -0.000163  -0.006503   0.006919   0.000000
    28  H    0.355939  -0.031931  -0.006245   0.003809  -0.000060   0.000000
    29  H   -0.003129  -0.033406   0.359698   0.005173   0.000355   0.000000
    30  H    0.000670  -0.028866   0.369127  -0.003643   0.002971   0.000000
    31  H    0.000720  -0.028656   0.368164  -0.003738   0.002977   0.000000
             19         20         21         22         23         24
     1  O   -0.038547   0.003309   0.000512   0.001430   0.002526   0.000017
     2  C    0.383502  -0.024837  -0.023925  -0.001243  -0.045244  -0.013074
     3  C   -0.041001   0.343531   0.357202  -0.053711   0.006918   0.003382
     4  C    0.005994  -0.033663  -0.021678   0.388119   0.002435   0.001248
     5  O    0.003083  -0.000035   0.002855  -0.041697  -0.035340   0.002048
     6  C   -0.048700   0.003717   0.005653   0.002550   0.367962  -0.036758
     7  C   -0.002794  -0.000688  -0.000164  -0.000280  -0.049809   0.353914
     8  O    0.009607   0.000010  -0.000003   0.000002   0.006695  -0.036792
     9  N   -0.000075  -0.003085  -0.000311  -0.066764  -0.000204  -0.000421
    10  C   -0.000004   0.000083   0.001197  -0.001126   0.000003   0.000013
    11  N    0.000000  -0.000130   0.000047   0.000014   0.000000  -0.000001
    12  O    0.000000  -0.000573   0.004868   0.008019   0.000000   0.000000
    13  C   -0.000010   0.001856  -0.000099   0.004021   0.000033   0.001416
    14  C    0.000000  -0.000209   0.000012   0.000078   0.000002   0.000090
    15  C    0.000000   0.000000   0.000000   0.000002   0.000000   0.000003
    16  C    0.000000   0.000023  -0.000003  -0.000029   0.000000  -0.000001
    17  O    0.000000   0.000000   0.000000   0.000000   0.000000   0.000000
    18  H    0.006892  -0.000001  -0.000305   0.000628  -0.000202   0.000008
    19  H    0.550809  -0.003346   0.000014  -0.000121   0.001005  -0.000092
    20  H   -0.003346   0.571930  -0.023549   0.005320  -0.000145   0.002728
    21  H    0.000014  -0.023549   0.502101  -0.003050  -0.000109  -0.000024
    22  H   -0.000121   0.005320  -0.003050   0.589259   0.000163   0.000048
    23  H    0.001005  -0.000145  -0.000109   0.000163   0.577708   0.006648
    24  H   -0.000092   0.002728  -0.000024   0.000048   0.006648   0.652629
    25  H    0.000409   0.000004   0.000001   0.000006  -0.007778  -0.057471
    26  H   -0.000277  -0.000006   0.000000   0.000000  -0.000325  -0.003823
    27  H    0.000000   0.000003  -0.000001   0.000006   0.000000   0.000000
    28  H   -0.000002   0.000188  -0.000020   0.000583   0.000033   0.000134
    29  H    0.000000   0.000000   0.000000   0.000000   0.000000   0.000002
    30  H    0.000000   0.000000   0.000000   0.000000   0.000000   0.000000
    31  H    0.000000   0.000000   0.000000   0.000000   0.000000  -0.000001
             25         26         27         28         29         30
     1  O   -0.000076   0.000003   0.000000  -0.000001   0.000000   0.000000
     2  C    0.005801   0.000141   0.000000   0.000196   0.000000   0.000000
     3  C   -0.000203  -0.000036   0.000001   0.000677   0.000000   0.000000
     4  C   -0.000204   0.000004  -0.000092  -0.006708  -0.000001   0.000003
     5  O    0.003053  -0.000105   0.000000   0.016610  -0.000003   0.000000
     6  C   -0.029805   0.005458   0.000000  -0.002094   0.000000   0.000000
     7  C    0.353515  -0.018334   0.000000   0.000373  -0.000002   0.000000
     8  O   -0.034594   0.234094   0.000000   0.000006   0.000000   0.000000
     9  N   -0.000058   0.000000   0.005176  -0.050894   0.000083  -0.000047
    10  C   -0.000001   0.000000  -0.013685   0.002239  -0.000023  -0.000008
    11  N    0.000000   0.000000   0.273383  -0.000643  -0.000056   0.000026
    12  O    0.000000   0.000000   0.004113  -0.000116   0.000000   0.000000
    13  C   -0.000744   0.000000  -0.000261   0.355939  -0.003129   0.000670
    14  C    0.000020   0.000000   0.007275  -0.031931  -0.033406  -0.028866
    15  C   -0.000004   0.000000  -0.000163  -0.006245   0.359698   0.369127
    16  C    0.000000   0.000000  -0.006503   0.003809   0.005173  -0.003643
    17  O    0.000000   0.000000   0.006919  -0.000060   0.000355   0.002971
    18  H   -0.000003   0.000001   0.000000   0.000000   0.000000   0.000000
    19  H    0.000409  -0.000277   0.000000  -0.000002   0.000000   0.000000
    20  H    0.000004  -0.000006   0.000003   0.000188   0.000000   0.000000
    21  H    0.000001   0.000000  -0.000001  -0.000020   0.000000   0.000000
    22  H    0.000006   0.000000   0.000006   0.000583   0.000000   0.000000
    23  H   -0.007778  -0.000325   0.000000   0.000033   0.000000   0.000000
    24  H   -0.057471  -0.003823   0.000000   0.000134   0.000002   0.000000
    25  H    0.631898  -0.004167   0.000000   0.002507   0.000010   0.000000
    26  H   -0.004167   0.383779   0.000000  -0.000005   0.000000   0.000000
    27  H    0.000000   0.000000   0.369876   0.000032   0.000002  -0.000001
    28  H    0.002507  -0.000005   0.000032   0.521403   0.005267   0.000033
    29  H    0.000010   0.000000   0.000002   0.005267   0.577726  -0.027618
    30  H    0.000000   0.000000  -0.000001   0.000033  -0.027618   0.543566
    31  H    0.000000   0.000000  -0.000001   0.000068  -0.028299  -0.033233
             31
     1  O    0.000000
     2  C    0.000000
     3  C    0.000000
     4  C    0.000001
     5  O    0.000000
     6  C    0.000000
     7  C    0.000000
     8  O    0.000000
     9  N   -0.000054
    10  C   -0.000006
    11  N    0.000026
    12  O    0.000000
    13  C    0.000720
    14  C   -0.028656
    15  C    0.368164
    16  C   -0.003738
    17  O    0.002977
    18  H    0.000000
    19  H    0.000000
    20  H    0.000000
    21  H    0.000000
    22  H    0.000000
    23  H    0.000000
    24  H   -0.000001
    25  H    0.000000
    26  H    0.000000
    27  H   -0.000001
    28  H    0.000068
    29  H   -0.028299
    30  H   -0.033233
    31  H    0.547699
 Mulliken atomic charges:
              1
     1  O   -0.625232
     2  C    0.109546
     3  C   -0.335821
     4  C    0.304991
     5  O   -0.531536
     6  C    0.105833
     7  C   -0.054115
     8  O   -0.613789
     9  N   -0.540022
    10  C    0.800090
    11  N   -0.711265
    12  O   -0.525250
    13  C    0.034629
    14  C    0.038517
    15  C   -0.507873
    16  C    0.589254
    17  O   -0.502636
    18  H    0.396145
    19  H    0.173655
    20  H    0.157565
    21  H    0.198779
    22  H    0.167774
    23  H    0.167024
    24  H    0.124131
    25  H    0.137885
    26  H    0.403599
    27  H    0.353921
    28  H    0.188624
    29  H    0.144222
    30  H    0.177022
    31  H    0.174336
 Sum of Mulliken atomic charges =   0.00000
 Mulliken charges with hydrogens summed into heavy atoms:
              1
     1  O   -0.229088
     2  C    0.283201
     3  C    0.020523
     4  C    0.472765
     5  O   -0.531536
     6  C    0.272857
     7  C    0.207900
     8  O   -0.210190
     9  N   -0.540022
    10  C    0.800090
    11  N   -0.357343
    12  O   -0.525250
    13  C    0.223253
    14  C    0.038517
    15  C   -0.012294
    16  C    0.589254
    17  O   -0.502636
 Sum of Mulliken charges with hydrogens summed into heavy atoms =   0.00000
 Electronic spatial extent (au):  <R**2>=           4694.7578
 Charge=              0.0000 electrons
 Dipole moment (field-independent basis, Debye):
    X=             -2.2625    Y=              3.2605    Z=             -0.0393  Tot=              3.9688
 Quadrupole moment (field-independent basis, Debye-Ang):
   XX=           -125.2824   YY=            -94.4661   ZZ=            -94.6674
   XY=             -7.1457   XZ=             -2.6932   YZ=              4.3562
 Traceless Quadrupole moment (field-independent basis, Debye-Ang):
   XX=            -20.4771   YY=             10.3392   ZZ=             10.1379
   XY=             -7.1457   XZ=             -2.6932   YZ=              4.3562
 Octapole moment (field-independent basis, Debye-Ang**2):
  XXX=            -49.5723  YYY=             52.9580  ZZZ=              4.6914  XYY=            -16.2442
  XXY=              0.6304  XXZ=            -13.9156  XZZ=            -17.2468  YZZ=             -3.5100
  YYZ=              5.4168  XYZ=            -19.9506
 Hexadecapole moment (field-independent basis, Debye-Ang**3):
 XXXX=          -5052.6451 YYYY=          -1369.9408 ZZZZ=           -278.7582 XXXY=           -213.3317
 XXXZ=            -53.7920 YYYX=           -104.3406 YYYZ=             64.0044 ZZZX=              3.6570
 ZZZY=             26.3879 XXYY=           -828.3520 XXZZ=           -685.4433 YYZZ=           -244.4861
 XXYZ=             27.6783 YYXZ=            -21.0103 ZZXY=            -15.1630
 N-N= 1.286366569826D+03 E-N=-4.616286930209D+03  KE= 8.673366333443D+02
 1|1|UNPC-DESKTOP-N7IAV1E|FOpt|RB3LYP|6-31G(d)|C10H14N2O5|KAWAS|13-Mar-
 2019|0||#opt b3lyp/6-31g(d) Geom=AllCheck Guess=Read||Conformer_0 at -
 57.784973978956714 MMFF energy generated from O[C@H]1C[C@@H](O[C@@H]1C
 O)N(C(N2)=O)C=C(C)C2=O||0,1|O,3.5787256805,-1.8206863945,0.4178893703|
 C,2.7786355067,-0.8827195849,-0.2899231336|C,1.3963128706,-1.435543674
 5,-0.6711922498|C,0.5474312763,-1.12182264,0.5730663274|O,1.1577793302
 ,-0.0150247016,1.2143106706|C,2.4048359325,0.336499541,0.5679437576|C,
 2.2286806737,1.6356684606,-0.2177259787|O,3.5084039697,1.9952400488,-0
 .7145167573|N,-0.8696896785,-0.8011871947,0.2672606466|C,-1.6577010747
 ,-1.8863942506,-0.1098517585|N,-2.9729107023,-1.5548886472,-0.37665798
 25|O,-1.2159207387,-3.0235284552,-0.1996443352|C,-1.3945206291,0.46974
 31504,0.3952782986|C,-2.6867734956,0.7780825794,0.1301743459|C,-3.2567
 937248,2.1604072132,0.2721271824|C,-3.5867590676,-0.2895661871,-0.3024
 446111|O,-4.7702168732,-0.1582202947,-0.5791415047|H,3.1137120997,-2.0
 704424102,1.2326729456|H,3.3742849976,-0.5895496043,-1.1562208842|H,0.
 988912458,-0.902951392,-1.5374997639|H,1.4182225354,-2.5007705379,-0.9
 02672883|H,0.5154420915,-1.9719434292,1.2627422828|H,3.1519846961,0.49
 61425612,1.3514326564|H,1.5010223686,1.4886147019,-1.032764355|H,1.820
 0590489,2.4003890474,0.4607492822|H,3.4246799988,2.8302914113,-1.19823
 9337|H,-3.5662052179,-2.3264622964,-0.6609637207|H,-0.6837994631,1.205
 5717313,0.7478084279|H,-2.4960482107,2.8702139214,0.6115630683|H,-4.08
 61725961,2.1696918252,0.9885920257|H,-3.6656140627,2.515245502,-0.6810
 520328||Version=EM64W-G09RevC.01|State=1-A|HF=-875.1190204|RMSD=9.030e
 -009|RMSF=1.271e-006|Dipole=0.8498615,1.3092289,0.0427178|Quadrupole=-
 15.4070902,8.0102158,7.3968744,4.6997803,-2.5084251,-3.1705912|PG=C01 
 [X(C10H14N2O5)]||@


 CHRISTMAS IS ON TOP OF A STEEP HILL.
 THE CLOSER YOU GET, THE STEEPER THE HILL IS.
          -- LINUS, OF PEANUTS
 Job cpu time:  0 days  4 hours 13 minutes 55.0 seconds.
 File lengths (MBytes):  RWF=     62 Int=      0 D2E=      0 Chk=      7 Scr=      1
 Normal termination of Gaussian 09 at Wed Mar 13 23:35:36 2019.
