 Entering Gaussian System, Link 0=C:\G09W\g09.exe
 Input=entry3_confs_0.gjf
 Output=C:\Users\kawas\Desktop\fluorescene_okuda\calcs\nucleosides_trial2\entries\entry3\entry3_confs_0.out
 Initial command:
 C:/G09W\l1.exe .\Gau-11020.inp C:\Users\kawas\Desktop\fluorescene_okuda\calcs\nucleosides_trial2\entries\entry3\entry3_confs_0.out /scrdir=.\
 Entering Link 1 = C:/G09W\l1.exe PID=     22704.
  
 Copyright (c) 1988,1990,1992,1993,1995,1998,2003,2009,2011,
            Gaussian, Inc.  All Rights Reserved.
  
 This is part of the Gaussian(R) 09 program.  It is based on
 the Gaussian(R) 03 system (copyright 2003, Gaussian, Inc.),
 the Gaussian(R) 98 system (copyright 1998, Gaussian, Inc.),
 the Gaussian(R) 94 system (copyright 1995, Gaussian, Inc.),
 the Gaussian 92(TM) system (copyright 1992, Gaussian, Inc.),
 the Gaussian 90(TM) system (copyright 1990, Gaussian, Inc.),
 the Gaussian 88(TM) system (copyright 1988, Gaussian, Inc.),
 the Gaussian 86(TM) system (copyright 1986, Carnegie Mellon
 University), and the Gaussian 82(TM) system (copyright 1983,
 Carnegie Mellon University). Gaussian is a federally registered
 trademark of Gaussian, Inc.
  
 This software contains proprietary and confidential information,
 including trade secrets, belonging to Gaussian, Inc.
  
 This software is provided under written license and may be
 used, copied, transmitted, or stored only in accord with that
 written license.
  
 The following legend is applicable only to US Government
 contracts under FAR:
  
                    RESTRICTED RIGHTS LEGEND
  
 Use, reproduction and disclosure by the US Government is
 subject to restrictions as set forth in subparagraphs (a)
 and (c) of the Commercial Computer Software - Restricted
 Rights clause in FAR 52.227-19.
  
 Gaussian, Inc.
 340 Quinnipiac St., Bldg. 40, Wallingford CT 06492
  
  
 ---------------------------------------------------------------
 Warning -- This program may not be used in any manner that
 competes with the business of Gaussian, Inc. or will provide
 assistance to any competitor of Gaussian, Inc.  The licensee
 of this program is prohibited from giving any competitor of
 Gaussian, Inc. access to this program.  By using this program,
 the user acknowledges that Gaussian, Inc. is engaged in the
 business of creating and licensing software in the field of
 computational chemistry and represents and warrants to the
 licensee that it is not a competitor of Gaussian, Inc. and that
 it will not use this program in any manner prohibited above.
 ---------------------------------------------------------------
  

 Cite this work as:
 Gaussian 09, Revision C.01,
 M. J. Frisch, G. W. Trucks, H. B. Schlegel, G. E. Scuseria, 
 M. A. Robb, J. R. Cheeseman, G. Scalmani, V. Barone, B. Mennucci, 
 G. A. Petersson, H. Nakatsuji, M. Caricato, X. Li, H. P. Hratchian, 
 A. F. Izmaylov, J. Bloino, G. Zheng, J. L. Sonnenberg, M. Hada, 
 M. Ehara, K. Toyota, R. Fukuda, J. Hasegawa, M. Ishida, T. Nakajima, 
 Y. Honda, O. Kitao, H. Nakai, T. Vreven, J. A. Montgomery, Jr., 
 J. E. Peralta, F. Ogliaro, M. Bearpark, J. J. Heyd, E. Brothers, 
 K. N. Kudin, V. N. Staroverov, T. Keith, R. Kobayashi, J. Normand, 
 K. Raghavachari, A. Rendell, J. C. Burant, S. S. Iyengar, J. Tomasi, 
 M. Cossi, N. Rega, J. M. Millam, M. Klene, J. E. Knox, J. B. Cross, 
 V. Bakken, C. Adamo, J. Jaramillo, R. Gomperts, R. E. Stratmann, 
 O. Yazyev, A. J. Austin, R. Cammi, C. Pomelli, J. W. Ochterski, 
 R. L. Martin, K. Morokuma, V. G. Zakrzewski, G. A. Voth, 
 P. Salvador, J. J. Dannenberg, S. Dapprich, A. D. Daniels, 
 O. Farkas, J. B. Foresman, J. V. Ortiz, J. Cioslowski, 
 and D. J. Fox, Gaussian, Inc., Wallingford CT, 2010.
 
 ******************************************
 Gaussian 09:  EM64W-G09RevC.01 23-Sep-2011
                13-Mar-2019 
 ******************************************
 %chk=entry3_confs_0
 %nprocshared=4
 Will use up to    4 processors via shared memory.
 %mem=260MB
 -------------
 #opt hf/3-21g
 -------------
 1/18=20,19=15,38=1/1,3;
 2/9=110,12=2,17=6,18=5,40=1/2;
 3/5=5,11=9,16=1,25=1,30=1,71=1/1,2,3;
 4//1;
 5/5=2,38=5/2;
 6/7=2,8=2,9=2,10=2,28=1/1;
 7//1,2,3,16;
 1/18=20,19=15/3(2);
 2/9=110/2;
 99//99;
 2/9=110/2;
 3/5=5,11=9,16=1,25=1,30=1,71=1/1,2,3;
 4/5=5,16=3/1;
 5/5=2,38=5/2;
 7//1,2,3,16;
 1/18=20,19=15/3(-5);
 2/9=110/2;
 6/7=2,8=2,9=2,10=2,19=2,28=1/1;
 99/9=1/99;
 ----------------------------------------------------------------------
 Conformer_0 at -61.764080507159065 MMFF energy generated from O[C@H]1C
 [C@@H](O[C@@H]1CO)N(C(N2)=O)C=CC2=O
 ----------------------------------------------------------------------
 Charge =  0 Multiplicity = 1
 Symbolic Z-Matrix:
 O                    -2.1819   -0.1279    2.1761 
 C                    -2.1331    0.3987    1.0005 
 C                    -0.713     0.956     0.8102 
 C                    -0.0038   -0.3827    0.5765 
 O                    -0.8274   -0.9644   -0.3622 
 C                    -2.133    -0.6874   -0.041 
 C                    -2.8465   -0.2628   -1.3069 
 O                    -2.294     0.8585   -1.89 
 N                     1.3382   -0.2182    0.1374 
 C                     2.2974   -0.9684    0.7105 
 N                     3.6004   -0.8588    0.3355 
 O                     2.0559   -1.807     1.6165 
 C                     1.6543    0.6538   -0.8178 
 C                     2.9713    0.7835   -1.2162 
 C                     3.9328    0.0098   -0.6195 
 O                     5.1437    0.0897   -0.9456 
 H                    -2.0559   -0.8975    2.4203 
 H                    -2.8907    1.1776    0.8126 
 H                    -0.3642    1.451     1.7203 
 H                    -0.7071    1.5869   -0.0903 
 H                    -0.1091   -0.9417    1.5205 
 H                    -2.6607   -1.5687    0.3541 
 H                    -3.9454   -0.1368   -1.0995 
 H                    -2.7798   -1.0959   -2.0366 
 H                    -2.8631    1.6635   -1.7175 
 H                     4.3318   -1.4524    0.7946 
 H                     0.9132    1.2582   -1.2859 
 H                     3.2697    1.4835   -1.992 
 

 GradGradGradGradGradGradGradGradGradGradGradGradGradGradGradGradGradGrad
 Berny optimization.
 Initialization pass.
                           ----------------------------
                           !    Initial Parameters    !
                           ! (Angstroms and Degrees)  !
 --------------------------                            --------------------------
 ! Name  Definition              Value          Derivative Info.                !
 --------------------------------------------------------------------------------
 ! R1    R(1,2)                  1.2891         estimate D2E/DX2                !
 ! R2    R(1,17)                 0.8172         estimate D2E/DX2                !
 ! R3    R(2,3)                  1.5374         estimate D2E/DX2                !
 ! R4    R(2,6)                  1.5048         estimate D2E/DX2                !
 ! R5    R(2,18)                 1.1027         estimate D2E/DX2                !
 ! R6    R(3,4)                  1.5329         estimate D2E/DX2                !
 ! R7    R(3,19)                 1.0931         estimate D2E/DX2                !
 ! R8    R(3,20)                 1.0995         estimate D2E/DX2                !
 ! R9    R(4,5)                  1.3776         estimate D2E/DX2                !
 ! R10   R(4,9)                  1.4216         estimate D2E/DX2                !
 ! R11   R(4,21)                 1.1021         estimate D2E/DX2                !
 ! R12   R(5,6)                  1.3728         estimate D2E/DX2                !
 ! R13   R(6,7)                  1.5139         estimate D2E/DX2                !
 ! R14   R(6,22)                 1.1006         estimate D2E/DX2                !
 ! R15   R(7,8)                  1.3793         estimate D2E/DX2                !
 ! R16   R(7,23)                 1.1254         estimate D2E/DX2                !
 ! R17   R(7,24)                 1.1095         estimate D2E/DX2                !
 ! R18   R(8,25)                 1.0008         estimate D2E/DX2                !
 ! R19   R(9,10)                 1.3458         estimate D2E/DX2                !
 ! R20   R(9,13)                 1.3314         estimate D2E/DX2                !
 ! R21   R(10,11)                1.3603         estimate D2E/DX2                !
 ! R22   R(10,12)                1.2579         estimate D2E/DX2                !
 ! R23   R(11,15)                1.333          estimate D2E/DX2                !
 ! R24   R(11,26)                1.0479         estimate D2E/DX2                !
 ! R25   R(13,14)                1.382          estimate D2E/DX2                !
 ! R26   R(13,27)                1.0647         estimate D2E/DX2                !
 ! R27   R(14,15)                1.3708         estimate D2E/DX2                !
 ! R28   R(14,28)                1.0867         estimate D2E/DX2                !
 ! R29   R(15,16)                1.2566         estimate D2E/DX2                !
 ! A1    A(2,1,17)             130.6478         estimate D2E/DX2                !
 ! A2    A(1,2,3)              107.214          estimate D2E/DX2                !
 ! A3    A(1,2,6)              109.655          estimate D2E/DX2                !
 ! A4    A(1,2,18)             114.7048         estimate D2E/DX2                !
 ! A5    A(3,2,6)              100.1316         estimate D2E/DX2                !
 ! A6    A(3,2,18)             110.9459         estimate D2E/DX2                !
 ! A7    A(6,2,18)             113.0749         estimate D2E/DX2                !
 ! A8    A(2,3,4)               97.4499         estimate D2E/DX2                !
 ! A9    A(2,3,19)             110.8446         estimate D2E/DX2                !
 ! A10   A(2,3,20)             108.3206         estimate D2E/DX2                !
 ! A11   A(4,3,19)             112.0098         estimate D2E/DX2                !
 ! A12   A(4,3,20)             111.9478         estimate D2E/DX2                !
 ! A13   A(19,3,20)            114.8542         estimate D2E/DX2                !
 ! A14   A(3,4,5)              101.3059         estimate D2E/DX2                !
 ! A15   A(3,4,9)              112.5072         estimate D2E/DX2                !
 ! A16   A(3,4,21)             105.5549         estimate D2E/DX2                !
 ! A17   A(5,4,9)              113.7515         estimate D2E/DX2                !
 ! A18   A(5,4,21)             108.2004         estimate D2E/DX2                !
 ! A19   A(9,4,21)             114.4219         estimate D2E/DX2                !
 ! A20   A(4,5,6)              108.9023         estimate D2E/DX2                !
 ! A21   A(2,6,5)              107.9176         estimate D2E/DX2                !
 ! A22   A(2,6,7)              112.1039         estimate D2E/DX2                !
 ! A23   A(2,6,22)             109.2363         estimate D2E/DX2                !
 ! A24   A(5,6,7)              108.0101         estimate D2E/DX2                !
 ! A25   A(5,6,22)             112.2368         estimate D2E/DX2                !
 ! A26   A(7,6,22)             107.3855         estimate D2E/DX2                !
 ! A27   A(6,7,8)              113.1231         estimate D2E/DX2                !
 ! A28   A(6,7,23)             109.7253         estimate D2E/DX2                !
 ! A29   A(6,7,24)             108.1207         estimate D2E/DX2                !
 ! A30   A(8,7,23)             112.2112         estimate D2E/DX2                !
 ! A31   A(8,7,24)             107.957          estimate D2E/DX2                !
 ! A32   A(23,7,24)            105.3065         estimate D2E/DX2                !
 ! A33   A(7,8,25)             110.6853         estimate D2E/DX2                !
 ! A34   A(4,9,10)             118.4757         estimate D2E/DX2                !
 ! A35   A(4,9,13)             121.434          estimate D2E/DX2                !
 ! A36   A(10,9,13)            120.0903         estimate D2E/DX2                !
 ! A37   A(9,10,11)            121.358          estimate D2E/DX2                !
 ! A38   A(9,10,12)            122.7835         estimate D2E/DX2                !
 ! A39   A(11,10,12)           115.8585         estimate D2E/DX2                !
 ! A40   A(10,11,15)           119.2646         estimate D2E/DX2                !
 ! A41   A(10,11,26)           120.1423         estimate D2E/DX2                !
 ! A42   A(15,11,26)           120.5931         estimate D2E/DX2                !
 ! A43   A(9,13,14)            119.6378         estimate D2E/DX2                !
 ! A44   A(9,13,27)            121.4623         estimate D2E/DX2                !
 ! A45   A(14,13,27)           118.8999         estimate D2E/DX2                !
 ! A46   A(13,14,15)           119.3372         estimate D2E/DX2                !
 ! A47   A(13,14,28)           121.8651         estimate D2E/DX2                !
 ! A48   A(15,14,28)           118.7977         estimate D2E/DX2                !
 ! A49   A(11,15,14)           120.3121         estimate D2E/DX2                !
 ! A50   A(11,15,16)           117.8812         estimate D2E/DX2                !
 ! A51   A(14,15,16)           121.8067         estimate D2E/DX2                !
 ! D1    D(17,1,2,3)           -93.4156         estimate D2E/DX2                !
 ! D2    D(17,1,2,6)            14.4153         estimate D2E/DX2                !
 ! D3    D(17,1,2,18)          142.9089         estimate D2E/DX2                !
 ! D4    D(1,2,3,4)             75.4103         estimate D2E/DX2                !
 ! D5    D(1,2,3,19)           -41.6041         estimate D2E/DX2                !
 ! D6    D(1,2,3,20)          -168.4623         estimate D2E/DX2                !
 ! D7    D(6,2,3,4)            -38.9876         estimate D2E/DX2                !
 ! D8    D(6,2,3,19)          -156.002          estimate D2E/DX2                !
 ! D9    D(6,2,3,20)            77.1399         estimate D2E/DX2                !
 ! D10   D(18,2,3,4)          -158.6385         estimate D2E/DX2                !
 ! D11   D(18,2,3,19)           84.347          estimate D2E/DX2                !
 ! D12   D(18,2,3,20)          -42.5111         estimate D2E/DX2                !
 ! D13   D(1,2,6,5)            -94.0623         estimate D2E/DX2                !
 ! D14   D(1,2,6,7)            147.1192         estimate D2E/DX2                !
 ! D15   D(1,2,6,22)            28.2185         estimate D2E/DX2                !
 ! D16   D(3,2,6,5)             18.4607         estimate D2E/DX2                !
 ! D17   D(3,2,6,7)           -100.3578         estimate D2E/DX2                !
 ! D18   D(3,2,6,22)           140.7415         estimate D2E/DX2                !
 ! D19   D(18,2,6,5)           136.5507         estimate D2E/DX2                !
 ! D20   D(18,2,6,7)            17.7322         estimate D2E/DX2                !
 ! D21   D(18,2,6,22)         -101.1685         estimate D2E/DX2                !
 ! D22   D(2,3,4,5)             48.3342         estimate D2E/DX2                !
 ! D23   D(2,3,4,9)            170.1674         estimate D2E/DX2                !
 ! D24   D(2,3,4,21)           -64.3893         estimate D2E/DX2                !
 ! D25   D(19,3,4,5)           164.4337         estimate D2E/DX2                !
 ! D26   D(19,3,4,9)           -73.733          estimate D2E/DX2                !
 ! D27   D(19,3,4,21)           51.7102         estimate D2E/DX2                !
 ! D28   D(20,3,4,5)           -64.899          estimate D2E/DX2                !
 ! D29   D(20,3,4,9)            56.9342         estimate D2E/DX2                !
 ! D30   D(20,3,4,21)         -177.6225         estimate D2E/DX2                !
 ! D31   D(3,4,5,6)            -39.5405         estimate D2E/DX2                !
 ! D32   D(9,4,5,6)           -160.503          estimate D2E/DX2                !
 ! D33   D(21,4,5,6)            71.1674         estimate D2E/DX2                !
 ! D34   D(3,4,9,10)           134.4933         estimate D2E/DX2                !
 ! D35   D(3,4,9,13)           -45.5106         estimate D2E/DX2                !
 ! D36   D(5,4,9,10)          -111.0386         estimate D2E/DX2                !
 ! D37   D(5,4,9,13)            68.9575         estimate D2E/DX2                !
 ! D38   D(21,4,9,10)           14.0325         estimate D2E/DX2                !
 ! D39   D(21,4,9,13)         -165.9714         estimate D2E/DX2                !
 ! D40   D(4,5,6,2)             13.3111         estimate D2E/DX2                !
 ! D41   D(4,5,6,7)            134.7079         estimate D2E/DX2                !
 ! D42   D(4,5,6,22)          -107.1046         estimate D2E/DX2                !
 ! D43   D(2,6,7,8)             58.7604         estimate D2E/DX2                !
 ! D44   D(2,6,7,23)           -67.3805         estimate D2E/DX2                !
 ! D45   D(2,6,7,24)           178.2633         estimate D2E/DX2                !
 ! D46   D(5,6,7,8)            -60.0036         estimate D2E/DX2                !
 ! D47   D(5,6,7,23)           173.8556         estimate D2E/DX2                !
 ! D48   D(5,6,7,24)            59.4994         estimate D2E/DX2                !
 ! D49   D(22,6,7,8)           178.7462         estimate D2E/DX2                !
 ! D50   D(22,6,7,23)           52.6054         estimate D2E/DX2                !
 ! D51   D(22,6,7,24)          -61.7508         estimate D2E/DX2                !
 ! D52   D(6,7,8,25)          -104.1786         estimate D2E/DX2                !
 ! D53   D(23,7,8,25)           20.6251         estimate D2E/DX2                !
 ! D54   D(24,7,8,25)          136.2244         estimate D2E/DX2                !
 ! D55   D(4,9,10,11)         -179.9962         estimate D2E/DX2                !
 ! D56   D(4,9,10,12)           -0.0042         estimate D2E/DX2                !
 ! D57   D(13,9,10,11)           0.0077         estimate D2E/DX2                !
 ! D58   D(13,9,10,12)         179.9996         estimate D2E/DX2                !
 ! D59   D(4,9,13,14)          179.9974         estimate D2E/DX2                !
 ! D60   D(4,9,13,27)            0.0047         estimate D2E/DX2                !
 ! D61   D(10,9,13,14)          -0.0065         estimate D2E/DX2                !
 ! D62   D(10,9,13,27)        -179.9992         estimate D2E/DX2                !
 ! D63   D(9,10,11,15)          -0.0071         estimate D2E/DX2                !
 ! D64   D(9,10,11,26)         179.9971         estimate D2E/DX2                !
 ! D65   D(12,10,11,15)       -179.9996         estimate D2E/DX2                !
 ! D66   D(12,10,11,26)          0.0046         estimate D2E/DX2                !
 ! D67   D(10,11,15,14)          0.0055         estimate D2E/DX2                !
 ! D68   D(10,11,15,16)       -179.9983         estimate D2E/DX2                !
 ! D69   D(26,11,15,14)       -179.9987         estimate D2E/DX2                !
 ! D70   D(26,11,15,16)         -0.0025         estimate D2E/DX2                !
 ! D71   D(9,13,14,15)           0.005          estimate D2E/DX2                !
 ! D72   D(9,13,14,28)        -180.0            estimate D2E/DX2                !
 ! D73   D(27,13,14,15)        179.9978         estimate D2E/DX2                !
 ! D74   D(27,13,14,28)         -0.0071         estimate D2E/DX2                !
 ! D75   D(13,14,15,11)         -0.0045         estimate D2E/DX2                !
 ! D76   D(13,14,15,16)        179.9994         estimate D2E/DX2                !
 ! D77   D(28,14,15,11)       -179.9997         estimate D2E/DX2                !
 ! D78   D(28,14,15,16)          0.0042         estimate D2E/DX2                !
 --------------------------------------------------------------------------------
 Trust Radius=3.00D-01 FncErr=1.00D-07 GrdErr=1.00D-07
 Number of steps in this run=    168 maximum allowed number of steps=    168.
 GradGradGradGradGradGradGradGradGradGradGradGradGradGradGradGradGradGrad

                          Input orientation:                          
 ---------------------------------------------------------------------
 Center     Atomic      Atomic             Coordinates (Angstroms)
 Number     Number       Type             X           Y           Z
 ---------------------------------------------------------------------
      1          8           0       -2.181900   -0.127900    2.176100
      2          6           0       -2.133100    0.398700    1.000500
      3          6           0       -0.713000    0.956000    0.810200
      4          6           0       -0.003800   -0.382700    0.576500
      5          8           0       -0.827400   -0.964400   -0.362200
      6          6           0       -2.133000   -0.687400   -0.041000
      7          6           0       -2.846500   -0.262800   -1.306900
      8          8           0       -2.294000    0.858500   -1.890000
      9          7           0        1.338200   -0.218200    0.137400
     10          6           0        2.297400   -0.968400    0.710500
     11          7           0        3.600400   -0.858800    0.335500
     12          8           0        2.055900   -1.807000    1.616500
     13          6           0        1.654300    0.653800   -0.817800
     14          6           0        2.971300    0.783500   -1.216200
     15          6           0        3.932800    0.009800   -0.619500
     16          8           0        5.143700    0.089700   -0.945600
     17          1           0       -2.055900   -0.897500    2.420300
     18          1           0       -2.890700    1.177600    0.812600
     19          1           0       -0.364200    1.451000    1.720300
     20          1           0       -0.707100    1.586900   -0.090300
     21          1           0       -0.109100   -0.941700    1.520500
     22          1           0       -2.660700   -1.568700    0.354100
     23          1           0       -3.945400   -0.136800   -1.099500
     24          1           0       -2.779800   -1.095900   -2.036600
     25          1           0       -2.863100    1.663500   -1.717500
     26          1           0        4.331800   -1.452400    0.794600
     27          1           0        0.913200    1.258200   -1.285900
     28          1           0        3.269700    1.483500   -1.992000
 ---------------------------------------------------------------------
                    Distance matrix (angstroms):
                    1          2          3          4          5
     1  O    0.000000
     2  C    1.289079   0.000000
     3  C    2.279954   1.537362   0.000000
     4  C    2.714362   2.307440   1.532872   0.000000
     5  O    2.996226   2.328056   2.252897   1.377625   0.000000
     6  C    2.287130   1.504771   2.332746   2.237776   1.372767
     7  C    3.548405   2.504120   3.243364   3.412113   2.336978
     8  O    4.185537   2.931262   3.130519   3.587369   2.794289
     9  N    4.068852   3.629798   2.457402   1.421560   2.344406
    10  C    4.787332   4.645685   3.574320   2.378344   3.303797
    11  N    6.112039   5.907330   4.703643   3.643489   4.483676
    12  O    4.592546   4.774127   3.993882   2.711567   3.597033
    13  C    4.928582   4.209001   2.888913   2.401604   2.997495
    14  C    6.236491   5.578237   4.208339   3.664016   4.267856
    15  C    6.724872   6.290531   4.952049   4.132952   4.865673
    16  O    7.965976   7.538873   6.175293   5.388572   6.091430
    17  H    0.817187   1.924039   2.798440   2.806373   3.042367
    18  H    2.016398   1.102701   2.188947   3.290056   3.197738
    19  H    2.450451   2.180471   1.093146   2.191032   3.222657
    20  H    3.201897   2.152938   1.099532   2.195126   2.568566
    21  H    2.321332   2.482670   2.114353   1.102137   2.015200
    22  H    2.371674   2.137021   3.221129   2.918077   2.058945
    23  H    3.720157   2.825100   3.910189   4.290181   3.309147
    24  H    4.363640   3.446161   4.072619   3.878546   2.575417
    25  H    4.339731   3.085473   3.393045   4.198210   3.589815
    26  H    6.789045   6.727845   5.590227   4.470934   5.309772
    27  H    4.846273   3.904652   2.670110   2.646125   2.970330
    28  H    7.049086   6.270733   4.898212   4.560230   5.043282
                    6          7          8          9         10
     6  C    0.000000
     7  C    1.513892   0.000000
     8  O    2.415477   1.379339   0.000000
     9  N    3.507307   4.427155   4.296802   0.000000
    10  C    4.502461   5.570232   5.584006   1.345849   0.000000
    11  N    5.748305   6.679462   6.530384   2.359483   1.360311
    12  O    4.641949   5.913066   6.190482   2.286289   1.257938
    13  C    4.092173   4.619153   4.096412   1.331432   2.319658
    14  C    5.440452   5.911833   5.308768   2.345773   2.689882
    15  C    6.133081   6.819512   6.411513   2.712348   2.323856
    16  O    7.373774   8.006128   7.536732   3.968567   3.458853
    17  H    2.471454   3.862630   4.660356   4.146444   4.677570
    18  H    2.186542   2.563003   2.786023   4.504192   5.615347
    19  H    3.286881   4.273507   4.136357   2.861812   3.735948
    20  H    2.684783   3.078723   2.507536   2.737423   4.024656
    21  H    2.568876   3.993552   4.432383   2.128637   2.539302
    22  H    1.100573   2.121042   3.325921   4.226347   5.007009
    23  H    2.169879   1.125376   2.083899   5.427060   6.552878
    24  H    2.137204   1.109489   2.019201   4.738624   5.774147
    25  H    2.978327   1.969645   1.000828   4.963101   6.281150
    26  H    6.563314   7.573602   7.513226   3.304058   2.092872
    27  H    3.822888   4.055765   3.287982   2.094317   3.295356
    28  H    6.140715   6.397408   5.599624   3.340781   3.776332
                   11         12         13         14         15
    11  N    0.000000
    12  O    2.219352   0.000000
    13  C    2.721280   3.484628   0.000000
    14  C    2.345355   3.946243   1.382040   0.000000
    15  C    1.333034   3.438490   2.376052   1.370819   0.000000
    16  O    2.218703   4.438055   3.537012   2.296498   1.256584
    17  H    6.028401   4.287212   5.163081   6.428268   6.777028
    18  H    6.819745   5.832919   4.856912   6.215657   7.069287
    19  H    4.792797   4.059830   3.339434   4.493790   5.100581
    20  H    4.971651   4.697435   2.641239   3.929851   4.929094
    21  H    3.895059   2.333492   3.335093   4.467069   4.671392
    22  H    6.301244   4.888431   4.993203   6.302231   6.849365
    23  H    7.714895   6.795721   5.662247   6.978632   7.894170
    24  H    6.811022   6.102032   4.920180   6.105764   6.949082
    25  H    7.235581   6.881605   4.715491   5.921649   7.079872
    26  H    1.047893   2.445605   3.768941   3.300534   2.072899
    27  H    3.785719   4.373230   1.064728   2.113285   3.334753
    28  H    3.318582   5.032094   2.162560   1.086696   2.120200
                   16         17         18         19         20
    16  O    0.000000
    17  H    8.008626   0.000000
    18  H    8.296166   2.754565   0.000000
    19  H    6.268742   2.977801   2.698494   0.000000
    20  H    6.099591   3.780822   2.398096   1.847788   0.000000
    21  H    5.893839   2.145140   3.567892   2.414541   3.057139
    22  H    8.083821   2.255100   2.793794   4.032245   3.737895
    23  H    9.093224   4.066678   2.548758   4.826735   3.804762
    24  H    8.085653   4.519663   3.646785   5.141607   3.909167
    25  H    8.196434   4.932715   2.576483   4.255364   2.702218
    26  H    2.462834   6.614645   7.686464   5.598131   5.950706
    27  H    4.402082   5.215220   4.345095   3.272027   2.040313
    28  H    2.559201   7.314340   6.775683   5.194945   4.409319
                   21         22         23         24         25
    21  H    0.000000
    22  H    2.874766   0.000000
    23  H    4.714813   2.411171   0.000000
    24  H    4.450773   2.439912   1.776697   0.000000
    25  H    4.985602   3.844426   2.189607   2.779038   0.000000
    26  H    4.528724   7.007326   8.592465   7.662744   8.233229
    27  H    3.709520   4.842905   5.058336   4.443376   3.822432
    28  H    5.443853   7.070343   7.448463   6.576606   6.141578
                   26         27         28
    26  H    0.000000
    27  H    4.833493   0.000000
    28  H    4.184818   2.470310   0.000000
 Stoichiometry    C9H12N2O5
 Framework group  C1[X(C9H12N2O5)]
 Deg. of freedom    78
 Full point group                 C1      NOp   1
 Largest Abelian subgroup         C1      NOp   1
 Largest concise Abelian subgroup C1      NOp   1
                         Standard orientation:                         
 ---------------------------------------------------------------------
 Center     Atomic      Atomic             Coordinates (Angstroms)
 Number     Number       Type             X           Y           Z
 ---------------------------------------------------------------------
      1          8           0        2.757713    1.874532    0.805050
      2          6           0        2.682129    0.588599    0.756199
      3          6           0        1.284188    0.195510    1.260898
      4          6           0        0.499881    0.596908    0.006529
      5          8           0        1.250627    0.001695   -0.983396
      6          6           0        2.581457    0.141591   -0.677114
      7          6           0        3.257361   -1.193517   -0.906265
      8          8           0        2.735274   -2.205614   -0.128023
      9          7           0       -0.850752    0.155129    0.044662
     10          6           0       -1.819089    1.020229   -0.309222
     11          7           0       -3.130637    0.659591   -0.294160
     12          8           0       -1.578796    2.200706   -0.671358
     13          6           0       -1.166042   -1.082912    0.419572
     14          6           0       -2.491619   -1.473201    0.443093
     15          6           0       -3.462350   -0.576456    0.078848
     16          8           0       -4.681272   -0.881769    0.083184
     17          1           0        2.604946    2.438826    0.234061
     18          1           0        3.468077    0.058995    1.319897
     19          1           0        1.001607    0.795169    2.130108
     20          1           0        1.268948   -0.891638    1.424747
     21          1           0        0.619811    1.689067   -0.080138
     22          1           0        3.082200    0.878816   -1.322882
     23          1           0        4.369368   -1.084262   -0.772184
     24          1           0        3.116781   -1.473280   -1.970660
     25          1           0        3.350658   -2.420988    0.631301
     26          1           0       -3.869075    1.348641   -0.573444
     27          1           0       -0.417797   -1.785012    0.703881
     28          1           0       -2.789675   -2.474288    0.742919
 ---------------------------------------------------------------------
 Rotational constants (GHZ):      1.1413058      0.3184626      0.2756312
 Standard basis: 3-21G (6D, 7F)
 There are   168 symmetry adapted basis functions of A   symmetry.
 Integral buffers will be    131072 words long.
 Raffenetti 1 integral format.
 Two-electron integral symmetry is turned on.
   168 basis functions,   276 primitive gaussians,   168 cartesian basis functions
    60 alpha electrons       60 beta electrons
       nuclear repulsion energy      1194.2538010862 Hartrees.
 NAtoms=   28 NActive=   28 NUniq=   28 SFac= 1.00D+00 NAtFMM=   60 NAOKFM=F Big=F
 One-electron integrals computed using PRISM.
 NBasis=   168 RedAO= T  NBF=   168
 NBsUse=   168 1.00D-06 NBFU=   168
 Harris functional with IExCor=  205 diagonalized for initial guess.
 ExpMin= 1.83D-01 ExpMax= 3.22D+02 ExpMxC= 3.22D+02 IAcc=1 IRadAn=         1 AccDes= 0.00D+00
 HarFok:  IExCor=  205 AccDes= 0.00D+00 IRadAn=         1 IDoV= 1
 ScaDFX=  1.000000  1.000000  1.000000  1.000000
 FoFCou: FMM=F IPFlag=           0 FMFlag=      100000 FMFlg1=           0
         NFxFlg=           0 DoJE=T BraDBF=F KetDBF=T FulRan=T
         Omega=  0.000000  0.000000  1.000000  0.000000  0.000000 ICntrl=     500 IOpCl=  0
         NMat0=    1 NMatS0=    1 NMatT0=    0 NMatD0=    1 NMtDS0=    0 NMtDT0=    0
         I1Cent=           4 NGrid=           0.
 Petite list used in FoFCou.
 Initial guess orbital symmetries:
       Occupied  (A) (A) (A) (A) (A) (A) (A) (A) (A) (A) (A) (A)
                 (A) (A) (A) (A) (A) (A) (A) (A) (A) (A) (A) (A)
                 (A) (A) (A) (A) (A) (A) (A) (A) (A) (A) (A) (A)
                 (A) (A) (A) (A) (A) (A) (A) (A) (A) (A) (A) (A)
                 (A) (A) (A) (A) (A) (A) (A) (A) (A) (A) (A) (A)
       Virtual   (A) (A) (A) (A) (A) (A) (A) (A) (A) (A) (A) (A)
                 (A) (A) (A) (A) (A) (A) (A) (A) (A) (A) (A) (A)
                 (A) (A) (A) (A) (A) (A) (A) (A) (A) (A) (A) (A)
                 (A) (A) (A) (A) (A) (A) (A) (A) (A) (A) (A) (A)
                 (A) (A) (A) (A) (A) (A) (A) (A) (A) (A) (A) (A)
                 (A) (A) (A) (A) (A) (A) (A) (A) (A) (A) (A) (A)
                 (A) (A) (A) (A) (A) (A) (A) (A) (A) (A) (A) (A)
                 (A) (A) (A) (A) (A) (A) (A) (A) (A) (A) (A) (A)
                 (A) (A) (A) (A) (A) (A) (A) (A) (A) (A) (A) (A)
 The electronic state of the initial guess is 1-A.
 Requested convergence on RMS density matrix=1.00D-08 within 128 cycles.
 Requested convergence on MAX density matrix=1.00D-06.
 Requested convergence on             energy=1.00D-06.
 No special actions if energy rises.
 Integral accuracy reduced to 1.0D-05 until final iterations.
 Initial convergence to 1.0D-05 achieved.  Increase integral accuracy.
 SCF Done:  E(RHF) =  -826.285807731     A.U. after   16 cycles
             Convg  =    0.3135D-08             -V/T =  2.0006

 **********************************************************************

            Population analysis using the SCF density.

 **********************************************************************

 Orbital symmetries:
       Occupied  (A) (A) (A) (A) (A) (A) (A) (A) (A) (A) (A) (A)
                 (A) (A) (A) (A) (A) (A) (A) (A) (A) (A) (A) (A)
                 (A) (A) (A) (A) (A) (A) (A) (A) (A) (A) (A) (A)
                 (A) (A) (A) (A) (A) (A) (A) (A) (A) (A) (A) (A)
                 (A) (A) (A) (A) (A) (A) (A) (A) (A) (A) (A) (A)
       Virtual   (A) (A) (A) (A) (A) (A) (A) (A) (A) (A) (A) (A)
                 (A) (A) (A) (A) (A) (A) (A) (A) (A) (A) (A) (A)
                 (A) (A) (A) (A) (A) (A) (A) (A) (A) (A) (A) (A)
                 (A) (A) (A) (A) (A) (A) (A) (A) (A) (A) (A) (A)
                 (A) (A) (A) (A) (A) (A) (A) (A) (A) (A) (A) (A)
                 (A) (A) (A) (A) (A) (A) (A) (A) (A) (A) (A) (A)
                 (A) (A) (A) (A) (A) (A) (A) (A) (A) (A) (A) (A)
                 (A) (A) (A) (A) (A) (A) (A) (A) (A) (A) (A) (A)
                 (A) (A) (A) (A) (A) (A) (A) (A) (A) (A) (A) (A)
 The electronic state is 1-A.
 Alpha  occ. eigenvalues --  -20.48220 -20.47767 -20.45092 -20.42300 -20.39955
 Alpha  occ. eigenvalues --  -15.58773 -15.55284 -11.36179 -11.29700 -11.29582
 Alpha  occ. eigenvalues --  -11.28218 -11.25791 -11.24433 -11.24370 -11.18776
 Alpha  occ. eigenvalues --  -11.18431  -1.48527  -1.45380  -1.43381  -1.38900
 Alpha  occ. eigenvalues --   -1.36867  -1.32891  -1.25625  -1.10164  -1.09370
 Alpha  occ. eigenvalues --   -1.05910  -0.96106  -0.95298  -0.90091  -0.86603
 Alpha  occ. eigenvalues --   -0.85235  -0.79638  -0.78752  -0.77479  -0.73778
 Alpha  occ. eigenvalues --   -0.72698  -0.69158  -0.68319  -0.66931  -0.66250
 Alpha  occ. eigenvalues --   -0.63230  -0.62515  -0.62163  -0.61794  -0.59259
 Alpha  occ. eigenvalues --   -0.58347  -0.56080  -0.55688  -0.55605  -0.52208
 Alpha  occ. eigenvalues --   -0.51063  -0.49639  -0.48678  -0.46352  -0.44979
 Alpha  occ. eigenvalues --   -0.42493  -0.42096  -0.40837  -0.39439  -0.33966
 Alpha virt. eigenvalues --    0.10132   0.18273   0.20414   0.24731   0.24878
 Alpha virt. eigenvalues --    0.26478   0.27196   0.29687   0.30416   0.30968
 Alpha virt. eigenvalues --    0.32042   0.33066   0.33319   0.34525   0.37814
 Alpha virt. eigenvalues --    0.39219   0.39535   0.41129   0.41985   0.43186
 Alpha virt. eigenvalues --    0.44811   0.46880   0.49734   0.50690   0.51509
 Alpha virt. eigenvalues --    0.54297   0.57610   0.59034   0.60593   0.66852
 Alpha virt. eigenvalues --    0.67913   0.79644   0.87482   0.92646   0.92985
 Alpha virt. eigenvalues --    0.95144   0.96320   0.97029   0.98227   0.98565
 Alpha virt. eigenvalues --    0.99274   0.99844   1.01536   1.01643   1.02572
 Alpha virt. eigenvalues --    1.04198   1.05106   1.05254   1.08518   1.09320
 Alpha virt. eigenvalues --    1.11031   1.12650   1.15459   1.20004   1.21665
 Alpha virt. eigenvalues --    1.25676   1.26124   1.27706   1.28784   1.30583
 Alpha virt. eigenvalues --    1.32282   1.33477   1.35477   1.37246   1.38206
 Alpha virt. eigenvalues --    1.40035   1.42329   1.44846   1.48487   1.50006
 Alpha virt. eigenvalues --    1.52121   1.56606   1.59450   1.63598   1.67826
 Alpha virt. eigenvalues --    1.72087   1.79623   1.85641   1.92285   1.93874
 Alpha virt. eigenvalues --    1.95821   1.95959   1.96985   1.98216   1.99582
 Alpha virt. eigenvalues --    2.01608   2.03019   2.05086   2.07670   2.08119
 Alpha virt. eigenvalues --    2.12822   2.14278   2.17288   2.19364   2.24556
 Alpha virt. eigenvalues --    2.30380   2.30917   2.43023   2.47285   2.59016
 Alpha virt. eigenvalues --    2.71730   3.12805   3.28092   3.42418   3.62637
 Alpha virt. eigenvalues --    3.77865   3.84774   3.86439
          Condensed to atoms (all electrons):
              1          2          3          4          5          6
     1  O    8.440940   0.151860  -0.093036   0.008356   0.000981  -0.059666
     2  C    0.151860   5.353978   0.224555  -0.127822  -0.049876   0.149981
     3  C   -0.093036   0.224555   5.816213   0.195834  -0.082238  -0.147711
     4  C    0.008356  -0.127822   0.195834   5.051804   0.218076  -0.135936
     5  O    0.000981  -0.049876  -0.082238   0.218076   8.525121   0.212491
     6  C   -0.059666   0.149981  -0.147711  -0.135936   0.212491   5.623832
     7  C    0.003281  -0.063692   0.004537   0.007884  -0.048368   0.123202
     8  O    0.000001   0.002507  -0.004319  -0.000512   0.000807  -0.061603
     9  N    0.000051   0.002797  -0.045769   0.155842  -0.041348   0.004126
    10  C    0.000003  -0.000102   0.005354  -0.054927   0.000371  -0.000047
    11  N    0.000000   0.000000  -0.000008   0.001165  -0.000002   0.000000
    12  O    0.000000   0.000000   0.000278  -0.005050   0.000039   0.000001
    13  C   -0.000001   0.000051  -0.016695  -0.045359   0.004698  -0.000006
    14  C    0.000000  -0.000002  -0.000002   0.001585   0.000064   0.000000
    15  C    0.000000   0.000000  -0.000024  -0.000085   0.000000   0.000000
    16  O    0.000000   0.000000   0.000000   0.000000   0.000000   0.000000
    17  H    0.320380  -0.047050   0.003199   0.002995   0.000098  -0.001804
    18  H   -0.032542   0.405899  -0.054987   0.005800   0.002054  -0.045852
    19  H    0.000754  -0.035563   0.366984  -0.038537   0.002409   0.006789
    20  H    0.002741  -0.044411   0.335403  -0.037482   0.000334   0.004720
    21  H    0.014956  -0.007092  -0.067924   0.363186  -0.040017   0.003201
    22  H   -0.002374  -0.056859   0.006531  -0.002068  -0.035331   0.368676
    23  H    0.000032  -0.001920   0.000458  -0.000188   0.001982  -0.061555
    24  H   -0.000039   0.004597  -0.000365  -0.000206   0.000375  -0.065546
    25  H    0.000000   0.001153  -0.000287   0.000013   0.000025   0.002619
    26  H    0.000000   0.000000   0.000001  -0.000024   0.000000   0.000000
    27  H    0.000000  -0.000027  -0.001363  -0.001150   0.000520   0.000004
    28  H    0.000000   0.000000   0.000003  -0.000049   0.000000   0.000000
              7          8          9         10         11         12
     1  O    0.003281   0.000001   0.000051   0.000003   0.000000   0.000000
     2  C   -0.063692   0.002507   0.002797  -0.000102   0.000000   0.000000
     3  C    0.004537  -0.004319  -0.045769   0.005354  -0.000008   0.000278
     4  C    0.007884  -0.000512   0.155842  -0.054927   0.001165  -0.005050
     5  O   -0.048368   0.000807  -0.041348   0.000371  -0.000002   0.000039
     6  C    0.123202  -0.061603   0.004126  -0.000047   0.000000   0.000001
     7  C    5.135824   0.221538  -0.000048   0.000003   0.000000   0.000000
     8  O    0.221538   8.311584   0.000001   0.000000   0.000000   0.000000
     9  N   -0.000048   0.000001   8.093710   0.075938  -0.089847  -0.075266
    10  C    0.000003   0.000000   0.075938   4.075506   0.166877   0.585282
    11  N    0.000000   0.000000  -0.089847   0.166877   7.925366  -0.084881
    12  O    0.000000   0.000000  -0.075266   0.585282  -0.084881   8.221766
    13  C   -0.000004  -0.000193   0.164629  -0.076132   0.009474   0.000247
    14  C    0.000000   0.000000  -0.057331   0.017456  -0.144737   0.000096
    15  C    0.000000   0.000000  -0.000676  -0.052616   0.054634   0.000005
    16  O    0.000000   0.000000   0.000015   0.000287  -0.088129  -0.000002
    17  H    0.000158   0.000001   0.000009  -0.000013   0.000000  -0.000017
    18  H   -0.000445   0.001181  -0.000029   0.000001   0.000000   0.000000
    19  H   -0.000212   0.000055   0.001374   0.000048   0.000000   0.000012
    20  H   -0.001318   0.013775  -0.002781  -0.000220  -0.000001  -0.000003
    21  H   -0.000574   0.000002  -0.034851  -0.000630   0.000291   0.013026
    22  H   -0.050997   0.001601  -0.000096  -0.000006   0.000000   0.000000
    23  H    0.357766  -0.031612   0.000000   0.000000   0.000000   0.000000
    24  H    0.384013  -0.034683  -0.000003   0.000000   0.000000   0.000000
    25  H   -0.048298   0.267360   0.000000   0.000000   0.000000   0.000000
    26  H    0.000000   0.000000   0.001807  -0.019207   0.319494   0.000629
    27  H   -0.000045   0.000779  -0.030014   0.000371   0.000025  -0.000022
    28  H    0.000000   0.000000   0.001850   0.000136   0.002210   0.000000
             13         14         15         16         17         18
     1  O   -0.000001   0.000000   0.000000   0.000000   0.320380  -0.032542
     2  C    0.000051  -0.000002   0.000000   0.000000  -0.047050   0.405899
     3  C   -0.016695  -0.000002  -0.000024   0.000000   0.003199  -0.054987
     4  C   -0.045359   0.001585  -0.000085   0.000000   0.002995   0.005800
     5  O    0.004698   0.000064   0.000000   0.000000   0.000098   0.002054
     6  C   -0.000006   0.000000   0.000000   0.000000  -0.001804  -0.045852
     7  C   -0.000004   0.000000   0.000000   0.000000   0.000158  -0.000445
     8  O   -0.000193   0.000000   0.000000   0.000000   0.000001   0.001181
     9  N    0.164629  -0.057331  -0.000676   0.000015   0.000009  -0.000029
    10  C   -0.076132   0.017456  -0.052616   0.000287  -0.000013   0.000001
    11  N    0.009474  -0.144737   0.054634  -0.088129   0.000000   0.000000
    12  O    0.000247   0.000096   0.000005  -0.000002  -0.000017   0.000000
    13  C    5.011853   0.393233  -0.085515   0.003899   0.000001  -0.000003
    14  C    0.393233   5.848187   0.113580  -0.096483   0.000000   0.000000
    15  C   -0.085515   0.113580   4.509173   0.594885   0.000000   0.000000
    16  O    0.003899  -0.096483   0.594885   8.238234   0.000000   0.000000
    17  H    0.000001   0.000000   0.000000   0.000000   0.307032   0.002644
    18  H   -0.000003   0.000000   0.000000   0.000000   0.002644   0.500432
    19  H    0.000562  -0.000022   0.000001   0.000000  -0.000075  -0.000650
    20  H    0.000782   0.000198   0.000000   0.000000  -0.000069   0.001358
    21  H    0.002560  -0.000004  -0.000022   0.000000   0.001425   0.000401
    22  H    0.000011   0.000000   0.000000   0.000000   0.003538   0.000765
    23  H    0.000000   0.000000   0.000000   0.000000  -0.000001   0.000573
    24  H    0.000001   0.000000   0.000000   0.000000  -0.000002   0.000150
    25  H    0.000009   0.000000   0.000000   0.000000   0.000000   0.000910
    26  H   -0.000721   0.004291  -0.017890   0.001230   0.000000   0.000000
    27  H    0.369642  -0.023787   0.002343  -0.000011   0.000000  -0.000003
    28  H   -0.029983   0.395481  -0.032990  -0.002889   0.000000   0.000000
             19         20         21         22         23         24
     1  O    0.000754   0.002741   0.014956  -0.002374   0.000032  -0.000039
     2  C   -0.035563  -0.044411  -0.007092  -0.056859  -0.001920   0.004597
     3  C    0.366984   0.335403  -0.067924   0.006531   0.000458  -0.000365
     4  C   -0.038537  -0.037482   0.363186  -0.002068  -0.000188  -0.000206
     5  O    0.002409   0.000334  -0.040017  -0.035331   0.001982   0.000375
     6  C    0.006789   0.004720   0.003201   0.368676  -0.061555  -0.065546
     7  C   -0.000212  -0.001318  -0.000574  -0.050997   0.357766   0.384013
     8  O    0.000055   0.013775   0.000002   0.001601  -0.031612  -0.034683
     9  N    0.001374  -0.002781  -0.034851  -0.000096   0.000000  -0.000003
    10  C    0.000048  -0.000220  -0.000630  -0.000006   0.000000   0.000000
    11  N    0.000000  -0.000001   0.000291   0.000000   0.000000   0.000000
    12  O    0.000012  -0.000003   0.013026   0.000000   0.000000   0.000000
    13  C    0.000562   0.000782   0.002560   0.000011   0.000000   0.000001
    14  C   -0.000022   0.000198  -0.000004   0.000000   0.000000   0.000000
    15  C    0.000001   0.000000  -0.000022   0.000000   0.000000   0.000000
    16  O    0.000000   0.000000   0.000000   0.000000   0.000000   0.000000
    17  H   -0.000075  -0.000069   0.001425   0.003538  -0.000001  -0.000002
    18  H   -0.000650   0.001358   0.000401   0.000765   0.000573   0.000150
    19  H    0.457306  -0.007136   0.002075   0.000049   0.000004   0.000002
    20  H   -0.007136   0.500323   0.003283  -0.000001   0.000226   0.000150
    21  H    0.002075   0.003283   0.470914   0.002067   0.000015   0.000008
    22  H    0.000049  -0.000001   0.002067   0.549374   0.005089  -0.000453
    23  H    0.000004   0.000226   0.000015   0.005089   0.601683  -0.030075
    24  H    0.000002   0.000150   0.000008  -0.000453  -0.030075   0.503409
    25  H    0.000003  -0.000220   0.000000  -0.000100  -0.010947   0.004502
    26  H    0.000000   0.000000   0.000002   0.000000   0.000000   0.000000
    27  H    0.000038   0.002785   0.000064   0.000001   0.000003  -0.000005
    28  H    0.000000   0.000001   0.000000   0.000000   0.000000   0.000000
             25         26         27         28
     1  O    0.000000   0.000000   0.000000   0.000000
     2  C    0.001153   0.000000  -0.000027   0.000000
     3  C   -0.000287   0.000001  -0.001363   0.000003
     4  C    0.000013  -0.000024  -0.001150  -0.000049
     5  O    0.000025   0.000000   0.000520   0.000000
     6  C    0.002619   0.000000   0.000004   0.000000
     7  C   -0.048298   0.000000  -0.000045   0.000000
     8  O    0.267360   0.000000   0.000779   0.000000
     9  N    0.000000   0.001807  -0.030014   0.001850
    10  C    0.000000  -0.019207   0.000371   0.000136
    11  N    0.000000   0.319494   0.000025   0.002210
    12  O    0.000000   0.000629  -0.000022   0.000000
    13  C    0.000009  -0.000721   0.369642  -0.029983
    14  C    0.000000   0.004291  -0.023787   0.395481
    15  C    0.000000  -0.017890   0.002343  -0.032990
    16  O    0.000000   0.001230  -0.000011  -0.002889
    17  H    0.000000   0.000000   0.000000   0.000000
    18  H    0.000910   0.000000  -0.000003   0.000000
    19  H    0.000003   0.000000   0.000038   0.000000
    20  H   -0.000220   0.000000   0.002785   0.000001
    21  H    0.000000   0.000002   0.000064   0.000000
    22  H   -0.000100   0.000000   0.000001   0.000000
    23  H   -0.010947   0.000000   0.000003   0.000000
    24  H    0.004502   0.000000  -0.000005   0.000000
    25  H    0.402601   0.000000  -0.000049   0.000000
    26  H    0.000000   0.282505   0.000003  -0.000016
    27  H   -0.000049   0.000003   0.349798  -0.000931
    28  H    0.000000  -0.000016  -0.000931   0.381209
 Mulliken atomic charges:
              1
     1  O   -0.756677
     2  C    0.137038
     3  C   -0.444625
     4  C    0.436855
     5  O   -0.673266
     6  C    0.080083
     7  C   -0.024204
     8  O   -0.688271
     9  N   -1.124089
    10  C    1.276267
    11  N   -1.071932
    12  O   -0.656139
    13  C    0.292958
    14  C   -0.451805
    15  C    0.915199
    16  O   -0.651036
    17  H    0.407551
    18  H    0.212343
    19  H    0.243730
    20  H    0.227563
    21  H    0.273636
    22  H    0.210583
    23  H    0.168467
    24  H    0.234171
    25  H    0.380706
    26  H    0.427897
    27  H    0.331033
    28  H    0.285967
 Sum of Mulliken atomic charges =   0.00000
 Mulliken charges with hydrogens summed into heavy atoms:
              1
     1  O   -0.349126
     2  C    0.349381
     3  C    0.026668
     4  C    0.710490
     5  O   -0.673266
     6  C    0.290666
     7  C    0.378435
     8  O   -0.307566
     9  N   -1.124089
    10  C    1.276267
    11  N   -0.644035
    12  O   -0.656139
    13  C    0.623990
    14  C   -0.165839
    15  C    0.915199
    16  O   -0.651036
 Sum of Mulliken charges with hydrogens summed into heavy atoms =   0.00000
 Electronic spatial extent (au):  <R**2>=           3922.1612
 Charge=              0.0000 electrons
 Dipole moment (field-independent basis, Debye):
    X=              7.5864    Y=             -0.8119    Z=              1.6901  Tot=              7.8147
 Quadrupole moment (field-independent basis, Debye-Ang):
   XX=           -102.7225   YY=            -97.6646   ZZ=            -94.3469
   XY=             -8.5344   XZ=             -0.5197   YZ=             -5.3346
 Traceless Quadrupole moment (field-independent basis, Debye-Ang):
   XX=             -4.4779   YY=              0.5801   ZZ=              3.8978
   XY=             -8.5344   XZ=             -0.5197   YZ=             -5.3346
 Octapole moment (field-independent basis, Debye-Ang**2):
  XXX=            211.0738  YYY=             -7.7725  ZZZ=             -4.4524  XYY=             17.1614
  XXY=             29.1620  XXZ=            -18.3710  XZZ=              5.4091  YZZ=             -6.1822
  YYZ=              9.8595  XYZ=            -18.7831
 Hexadecapole moment (field-independent basis, Debye-Ang**3):
 XXXX=          -4222.9317 YYYY=           -884.7634 ZZZZ=           -339.8867 XXXY=           -413.7736
 XXXZ=             47.2201 YYYX=             48.7771 YYYZ=            -31.2761 ZZZX=              6.9606
 ZZZY=              3.1107 XXYY=           -726.5530 XXZZ=           -649.0842 YYZZ=           -206.0374
 XXYZ=            -72.4453 YYXZ=            -10.9997 ZZXY=            -26.9891
 N-N= 1.194253801086D+03 E-N=-4.328808299391D+03  KE= 8.257821121556D+02
 Calling FoFJK, ICntrl=      2127 FMM=F ISym2X=0 I1Cent= 0 IOpClX= 0 NMat=1 NMatS=1 NMatT=0.
 ***** Axes restored to original set *****
 -------------------------------------------------------------------
 Center     Atomic                   Forces (Hartrees/Bohr)
 Number     Number              X              Y              Z
 -------------------------------------------------------------------
      1        8          -0.065417423    0.207365805    0.079293686
      2        6           0.023147089    0.051260619   -0.093842923
      3        6          -0.003037095    0.021604895   -0.000271012
      4        6          -0.005150467    0.027958719    0.050894810
      5        8           0.031403151   -0.038224997   -0.044769934
      6        6          -0.074445732   -0.007300552   -0.025055360
      7        6          -0.044993453   -0.058404061   -0.005154464
      8        8          -0.002108942    0.069070037   -0.005942261
      9        7          -0.010672012   -0.012754603    0.011504753
     10        6           0.020005474   -0.099945308    0.091736778
     11        7          -0.021313508   -0.008216491    0.014393599
     12        8          -0.009548030    0.035555234   -0.032907877
     13        6           0.073169345    0.034187244   -0.055292645
     14        6          -0.098338383    0.035609375   -0.015379701
     15        6           0.146454123   -0.003747217   -0.027024443
     16        8          -0.036494198   -0.000500950    0.008238476
     17        1           0.036461732   -0.236689434    0.055880507
     18        1           0.004999326   -0.014189863    0.009134554
     19        1          -0.003655778   -0.000361264   -0.011805922
     20        1           0.004810639   -0.008315028    0.014459500
     21        1           0.026058227    0.007280200   -0.016811152
     22        1           0.006505817    0.006654746   -0.002687622
     23        1           0.023648209   -0.002960948   -0.000672479
     24        1           0.001288714    0.013085525    0.011891139
     25        1           0.021729022   -0.024207426   -0.008249736
     26        1          -0.032431415    0.023313462   -0.017487610
     27        1          -0.006784809   -0.005805275    0.003356900
     28        1          -0.005289621   -0.011322441    0.012570439
 -------------------------------------------------------------------
 Cartesian Forces:  Max     0.236689434 RMS     0.051610964

 GradGradGradGradGradGradGradGradGradGradGradGradGradGradGradGradGradGrad
 Berny optimization.
 Internal  Forces:  Max     0.245227231 RMS     0.027796303
 Search for a local minimum.
 Step number   1 out of a maximum of  168
 All quantities printed in internal units (Hartrees-Bohrs-Radians)
 Mixed Optimization -- RFO/linear search
 Second derivative matrix not updated -- first step.
 ITU=  0
     Eigenvalues ---    0.00582   0.00669   0.01332   0.01407   0.01965
     Eigenvalues ---    0.02056   0.02308   0.02340   0.02386   0.02409
     Eigenvalues ---    0.02460   0.02463   0.02527   0.02528   0.03159
     Eigenvalues ---    0.03168   0.04119   0.04860   0.04866   0.05172
     Eigenvalues ---    0.05356   0.05567   0.05730   0.06073   0.06132
     Eigenvalues ---    0.06217   0.07442   0.07563   0.07860   0.08733
     Eigenvalues ---    0.11381   0.11814   0.14114   0.14428   0.16000
     Eigenvalues ---    0.16000   0.16000   0.16000   0.16000   0.16783
     Eigenvalues ---    0.17755   0.20611   0.21986   0.22391   0.23495
     Eigenvalues ---    0.24621   0.25000   0.25000   0.25000   0.26806
     Eigenvalues ---    0.27540   0.30239   0.30963   0.31025   0.32654
     Eigenvalues ---    0.33385   0.33447   0.33619   0.33734   0.34452
     Eigenvalues ---    0.35197   0.37904   0.40170   0.42226   0.45545
     Eigenvalues ---    0.45909   0.47472   0.47543   0.48410   0.49223
     Eigenvalues ---    0.51495   0.53960   0.56423   0.58991   0.70320
     Eigenvalues ---    0.80371   0.80851   1.02315
 RFO step:  Lambda=-1.56125669D-01 EMin= 5.82177526D-03
 Linear search not attempted -- first point.
 Maximum step size (   0.300) exceeded in Quadratic search.
    -- Step size scaled by   0.633
 Iteration  1 RMS(Cart)=  0.04319876 RMS(Int)=  0.00066862
 Iteration  2 RMS(Cart)=  0.00112713 RMS(Int)=  0.00015954
 Iteration  3 RMS(Cart)=  0.00000116 RMS(Int)=  0.00015954
 Iteration  4 RMS(Cart)=  0.00000000 RMS(Int)=  0.00015954
 Variable       Old X    -DE/DX   Delta X   Delta X   Delta X     New X
                                 (Linear)    (Quad)   (Total)
    R1        2.43601   0.13635   0.00000   0.10051   0.10051   2.53652
    R2        1.54426   0.24523   0.00000   0.13172   0.13172   1.67598
    R3        2.90519   0.02096   0.00000   0.02556   0.02570   2.93090
    R4        2.84360   0.04341   0.00000   0.05783   0.05800   2.90160
    R5        2.08380  -0.01501   0.00000  -0.01941  -0.01941   2.06439
    R6        2.89671   0.01430   0.00000   0.01600   0.01586   2.91257
    R7        2.06575  -0.01116   0.00000  -0.01412  -0.01412   2.05163
    R8        2.07781  -0.01659   0.00000  -0.02129  -0.02129   2.05652
    R9        2.60333   0.04626   0.00000   0.04785   0.04769   2.65102
   R10        2.68636   0.01807   0.00000   0.01979   0.01979   2.70615
   R11        2.08274  -0.02058   0.00000  -0.02657  -0.02657   2.05616
   R12        2.59415   0.05285   0.00000   0.05437   0.05434   2.64849
   R13        2.86084   0.00604   0.00000   0.00822   0.00822   2.86906
   R14        2.07978  -0.00941   0.00000  -0.01211  -0.01211   2.06767
   R15        2.60657   0.05033   0.00000   0.04917   0.04917   2.65574
   R16        2.12665  -0.02355   0.00000  -0.03198  -0.03198   2.09467
   R17        2.09663  -0.01757   0.00000  -0.02306  -0.02306   2.07357
   R18        1.89129  -0.03325   0.00000  -0.03335  -0.03335   1.85794
   R19        2.54329   0.03055   0.00000   0.02712   0.02713   2.57042
   R20        2.51604   0.05050   0.00000   0.04204   0.04191   2.55795
   R21        2.57062   0.01150   0.00000   0.01149   0.01164   2.58226
   R22        2.37716  -0.04557   0.00000  -0.03007  -0.03007   2.34708
   R23        2.51907   0.05175   0.00000   0.04479   0.04493   2.56400
   R24        1.98023  -0.04350   0.00000  -0.04940  -0.04940   1.93083
   R25        2.61168  -0.04724   0.00000  -0.04743  -0.04758   2.56410
   R26        2.01204  -0.00005   0.00000  -0.00006  -0.00006   2.01199
   R27        2.59047   0.06222   0.00000   0.05927   0.05926   2.64973
   R28        2.05356  -0.01772   0.00000  -0.02209  -0.02209   2.03147
   R29        2.37460  -0.03734   0.00000  -0.02452  -0.02452   2.35008
    A1        2.28023  -0.02742   0.00000  -0.05494  -0.05494   2.22529
    A2        1.87124   0.00872   0.00000   0.02746   0.02708   1.89832
    A3        1.91384   0.01353   0.00000   0.03129   0.03100   1.94484
    A4        2.00198  -0.01253   0.00000  -0.03327  -0.03301   1.96897
    A5        1.74763  -0.00220   0.00000  -0.00447  -0.00464   1.74298
    A6        1.93637   0.00047   0.00000  -0.00259  -0.00258   1.93379
    A7        1.97353  -0.00568   0.00000  -0.01202  -0.01200   1.96153
    A8        1.70082   0.01456   0.00000   0.01553   0.01540   1.71622
    A9        1.93460  -0.00182   0.00000   0.00351   0.00340   1.93800
   A10        1.89055  -0.00381   0.00000  -0.00344  -0.00329   1.88727
   A11        1.95494  -0.00319   0.00000   0.00256   0.00250   1.95744
   A12        1.95386  -0.00393   0.00000  -0.00914  -0.00913   1.94473
   A13        2.00458   0.00017   0.00000  -0.00574  -0.00577   1.99881
   A14        1.76812  -0.00274   0.00000  -0.00244  -0.00240   1.76572
   A15        1.96362   0.02295   0.00000   0.04288   0.04335   2.00697
   A16        1.84228  -0.00023   0.00000   0.00671   0.00696   1.84925
   A17        1.98534  -0.01251   0.00000  -0.02459  -0.02486   1.96048
   A18        1.88845   0.01101   0.00000   0.02368   0.02325   1.91171
   A19        1.99704  -0.01598   0.00000  -0.03945  -0.03975   1.95729
   A20        1.90070  -0.00245   0.00000   0.00497   0.00487   1.90557
   A21        1.88352  -0.00677   0.00000  -0.01211  -0.01198   1.87153
   A22        1.95658   0.00971   0.00000   0.01604   0.01597   1.97256
   A23        1.90653  -0.00178   0.00000  -0.00252  -0.00261   1.90392
   A24        1.88513  -0.00247   0.00000  -0.00333  -0.00334   1.88179
   A25        1.95890   0.00243   0.00000   0.00037   0.00032   1.95923
   A26        1.87423  -0.00077   0.00000   0.00206   0.00206   1.87629
   A27        1.97437  -0.00870   0.00000  -0.01540  -0.01543   1.95894
   A28        1.91507  -0.00136   0.00000  -0.00497  -0.00500   1.91007
   A29        1.88706   0.00158   0.00000   0.00275   0.00278   1.88984
   A30        1.95845   0.00398   0.00000   0.00612   0.00602   1.96448
   A31        1.88421   0.00396   0.00000   0.00811   0.00811   1.89231
   A32        1.83795   0.00135   0.00000   0.00514   0.00512   1.84306
   A33        1.93182   0.00861   0.00000   0.01724   0.01724   1.94907
   A34        2.06779  -0.00882   0.00000  -0.01256  -0.01251   2.05528
   A35        2.11942   0.00008   0.00000   0.00131   0.00137   2.12079
   A36        2.09597   0.00874   0.00000   0.01125   0.01111   2.10709
   A37        2.11810  -0.03468   0.00000  -0.05373  -0.05357   2.06452
   A38        2.14298  -0.00523   0.00000  -0.00833  -0.00841   2.13456
   A39        2.02211   0.03991   0.00000   0.06206   0.06198   2.08409
   A40        2.08156   0.03631   0.00000   0.06292   0.06320   2.14476
   A41        2.09688  -0.02104   0.00000  -0.03724  -0.03738   2.05950
   A42        2.10475  -0.01527   0.00000  -0.02568  -0.02582   2.07893
   A43        2.08807   0.01641   0.00000   0.02341   0.02312   2.11120
   A44        2.11992  -0.01740   0.00000  -0.03013  -0.02999   2.08993
   A45        2.07520   0.00099   0.00000   0.00672   0.00686   2.08206
   A46        2.08283   0.00548   0.00000   0.00635   0.00619   2.08901
   A47        2.12695  -0.00319   0.00000  -0.00408  -0.00399   2.12295
   A48        2.07341  -0.00229   0.00000  -0.00227  -0.00219   2.07122
   A49        2.09984  -0.03227   0.00000  -0.05019  -0.05007   2.04978
   A50        2.05742   0.01900   0.00000   0.02956   0.02950   2.08691
   A51        2.12593   0.01327   0.00000   0.02063   0.02057   2.14649
    D1       -1.63041  -0.00479   0.00000  -0.01514  -0.01569  -1.64610
    D2        0.25159   0.00278   0.00000   0.00653   0.00703   0.25863
    D3        2.49423  -0.00352   0.00000  -0.01006  -0.01001   2.48422
    D4        1.31616   0.00811   0.00000   0.02623   0.02628   1.34244
    D5       -0.72613   0.00512   0.00000   0.01448   0.01452  -0.71161
    D6       -2.94022   0.00893   0.00000   0.02186   0.02190  -2.91832
    D7       -0.68046  -0.00878   0.00000  -0.01555  -0.01553  -0.69599
    D8       -2.72275  -0.01178   0.00000  -0.02729  -0.02730  -2.75005
    D9        1.34634  -0.00796   0.00000  -0.01992  -0.01992   1.32643
   D10       -2.76877  -0.00125   0.00000   0.00181   0.00179  -2.76697
   D11        1.47213  -0.00425   0.00000  -0.00993  -0.00997   1.46216
   D12       -0.74196  -0.00043   0.00000  -0.00256  -0.00259  -0.74455
   D13       -1.64170  -0.00889   0.00000  -0.02226  -0.02241  -1.66411
   D14        2.56771  -0.00726   0.00000  -0.01989  -0.01995   2.54777
   D15        0.49251  -0.01119   0.00000  -0.03080  -0.03085   0.46166
   D16        0.32220   0.00445   0.00000   0.01699   0.01688   0.33908
   D17       -1.75157   0.00608   0.00000   0.01936   0.01935  -1.73223
   D18        2.45640   0.00215   0.00000   0.00845   0.00845   2.46485
   D19        2.38326   0.00129   0.00000   0.00622   0.00621   2.38947
   D20        0.30948   0.00292   0.00000   0.00858   0.00868   0.31816
   D21       -1.76572  -0.00101   0.00000  -0.00233  -0.00223  -1.76795
   D22        0.84359   0.00273   0.00000   0.00111   0.00108   0.84467
   D23        2.96998  -0.00252   0.00000  -0.00851  -0.00853   2.96145
   D24       -1.12381  -0.00814   0.00000  -0.02601  -0.02575  -1.14955
   D25        2.86991   0.00706   0.00000   0.01395   0.01388   2.88379
   D26       -1.28688   0.00181   0.00000   0.00433   0.00426  -1.28262
   D27        0.90251  -0.00381   0.00000  -0.01317  -0.01295   0.88956
   D28       -1.13270   0.00104   0.00000   0.00017   0.00013  -1.13257
   D29        0.99369  -0.00420   0.00000  -0.00945  -0.00949   0.98420
   D30       -3.10010  -0.00982   0.00000  -0.02695  -0.02670  -3.12680
   D31       -0.69011   0.00891   0.00000   0.01811   0.01824  -0.67187
   D32       -2.80131  -0.01068   0.00000  -0.01959  -0.01967  -2.82098
   D33        1.24211   0.01121   0.00000   0.03249   0.03294   1.27505
   D34        2.34735  -0.00074   0.00000  -0.00405  -0.00411   2.34324
   D35       -0.79431  -0.00289   0.00000  -0.01177  -0.01180  -0.80611
   D36       -1.93799   0.00299   0.00000   0.00554   0.00498  -1.93301
   D37        1.20354   0.00084   0.00000  -0.00218  -0.00271   1.20083
   D38        0.24491  -0.00617   0.00000  -0.01650  -0.01593   0.22899
   D39       -2.89675  -0.00832   0.00000  -0.02422  -0.02361  -2.92036
   D40        0.23232  -0.00964   0.00000  -0.02410  -0.02408   0.20824
   D41        2.35110  -0.00333   0.00000  -0.01378  -0.01377   2.33732
   D42       -1.86933  -0.00442   0.00000  -0.01315  -0.01318  -1.88250
   D43        1.02556  -0.00457   0.00000  -0.01288  -0.01284   1.01273
   D44       -1.17601  -0.00218   0.00000  -0.00541  -0.00543  -1.18144
   D45        3.11128  -0.00393   0.00000  -0.01039  -0.01037   3.10091
   D46       -1.04726  -0.00040   0.00000  -0.00535  -0.00536  -1.05262
   D47        3.03435   0.00198   0.00000   0.00212   0.00205   3.03640
   D48        1.03846   0.00024   0.00000  -0.00286  -0.00289   1.03557
   D49        3.11971  -0.00147   0.00000  -0.00508  -0.00504   3.11467
   D50        0.91814   0.00092   0.00000   0.00238   0.00237   0.92051
   D51       -1.07776  -0.00083   0.00000  -0.00260  -0.00257  -1.08033
   D52       -1.81826   0.00149   0.00000   0.00406   0.00406  -1.81420
   D53        0.35998  -0.00405   0.00000  -0.00995  -0.01000   0.34997
   D54        2.37756   0.00220   0.00000   0.00462   0.00467   2.38224
   D55       -3.14153  -0.00048   0.00000  -0.00176  -0.00185   3.13981
   D56       -0.00007  -0.00173   0.00000  -0.00618  -0.00614  -0.00622
   D57        0.00013   0.00164   0.00000   0.00584   0.00578   0.00591
   D58        3.14159   0.00039   0.00000   0.00143   0.00148  -3.14012
   D59        3.14155   0.00075   0.00000   0.00272   0.00269  -3.13894
   D60        0.00008  -0.00013   0.00000  -0.00035  -0.00032  -0.00024
   D61       -0.00011  -0.00144   0.00000  -0.00512  -0.00522  -0.00533
   D62       -3.14158  -0.00232   0.00000  -0.00819  -0.00824   3.13337
   D63       -0.00012  -0.00088   0.00000  -0.00311  -0.00312  -0.00324
   D64        3.14154  -0.00066   0.00000  -0.00234  -0.00233   3.13922
   D65       -3.14159   0.00029   0.00000   0.00102   0.00106  -3.14053
   D66        0.00008   0.00051   0.00000   0.00180   0.00185   0.00193
   D67        0.00010  -0.00006   0.00000  -0.00023  -0.00017  -0.00007
   D68       -3.14156   0.00012   0.00000   0.00042   0.00046  -3.14110
   D69       -3.14157  -0.00028   0.00000  -0.00101  -0.00097   3.14065
   D70       -0.00004  -0.00010   0.00000  -0.00036  -0.00034  -0.00038
   D71        0.00009   0.00051   0.00000   0.00183   0.00178   0.00187
   D72       -3.14159   0.00008   0.00000   0.00031   0.00029  -3.14130
   D73        3.14156   0.00137   0.00000   0.00482   0.00479  -3.13684
   D74       -0.00012   0.00093   0.00000   0.00329   0.00330   0.00317
   D75       -0.00008   0.00024   0.00000   0.00085   0.00088   0.00080
   D76        3.14158   0.00005   0.00000   0.00017   0.00022  -3.14138
   D77       -3.14159   0.00066   0.00000   0.00234   0.00232  -3.13927
   D78        0.00007   0.00047   0.00000   0.00166   0.00167   0.00174
         Item               Value     Threshold  Converged?
 Maximum Force            0.245227     0.000450     NO 
 RMS     Force            0.027796     0.000300     NO 
 Maximum Displacement     0.165179     0.001800     NO 
 RMS     Displacement     0.043192     0.001200     NO 
 Predicted change in Energy=-7.555448D-02
 GradGradGradGradGradGradGradGradGradGradGradGradGradGradGradGradGradGrad

                          Input orientation:                          
 ---------------------------------------------------------------------
 Center     Atomic      Atomic             Coordinates (Angstroms)
 Number     Number       Type             X           Y           Z
 ---------------------------------------------------------------------
      1          8           0       -2.257094   -0.139051    2.255657
      2          6           0       -2.164821    0.394057    1.027260
      3          6           0       -0.738072    0.972817    0.840411
      4          6           0        0.010916   -0.352617    0.600111
      5          8           0       -0.809879   -0.957741   -0.363290
      6          6           0       -2.151660   -0.693356   -0.056717
      7          6           0       -2.844833   -0.263545   -1.337277
      8          8           0       -2.271946    0.895032   -1.889122
      9          7           0        1.363226   -0.210511    0.150905
     10          6           0        2.313402   -0.978554    0.748764
     11          7           0        3.607111   -0.853208    0.327039
     12          8           0        2.043714   -1.778356    1.659922
     13          6           0        1.692605    0.649879   -0.840806
     14          6           0        2.977229    0.773384   -1.259815
     15          6           0        3.980702   -0.001422   -0.660801
     16          8           0        5.176479    0.062593   -0.996339
     17          1           0       -2.126800   -0.984909    2.488303
     18          1           0       -2.921488    1.159357    0.839716
     19          1           0       -0.400627    1.476251    1.741174
     20          1           0       -0.739534    1.595993   -0.051759
     21          1           0       -0.054909   -0.906918    1.534093
     22          1           0       -2.673266   -1.578961    0.318551
     23          1           0       -3.931516   -0.152328   -1.149085
     24          1           0       -2.753631   -1.077209   -2.067807
     25          1           0       -2.828890    1.688634   -1.725863
     26          1           0        4.317584   -1.430689    0.780601
     27          1           0        0.935054    1.238118   -1.303053
     28          1           0        3.250943    1.453358   -2.046169
 ---------------------------------------------------------------------
                    Distance matrix (angstroms):
                    1          2          3          4          5
     1  O    0.000000
     2  C    1.342266   0.000000
     3  C    2.355122   1.550964   0.000000
     4  C    2.816081   2.339618   1.541266   0.000000
     5  O    3.102188   2.365767   2.276204   1.402861   0.000000
     6  C    2.380220   1.535463   2.362034   2.285664   1.401522
     7  C    3.642816   2.546740   3.272515   3.452058   2.360423
     8  O    4.271855   2.961036   3.131960   3.600607   2.810440
     9  N    4.188294   3.685189   2.508214   1.432035   2.354811
    10  C    4.885174   4.692133   3.623223   2.390678   3.315416
    11  N    6.214377   5.946526   4.741152   3.641123   4.471831
    12  O    4.641031   4.778222   3.997359   2.699667   3.593019
    13  C    5.080415   4.293583   2.973041   2.430909   3.012455
    14  C    6.370966   5.640503   4.272491   3.677800   4.259429
    15  C    6.887290   6.385406   5.046742   4.180004   4.894152
    16  O    8.116289   7.622303   6.259718   5.422554   6.105596
    17  H    0.886891   2.009388   2.911495   2.921454   3.141115
    18  H    2.032775   1.092429   2.191370   3.307940   3.223076
    19  H    2.514033   2.189338   1.085675   2.194573   3.243544
    20  H    3.261523   2.154153   1.088264   2.187507   2.573627
    21  H    2.441290   2.530049   2.116910   1.088074   2.042700
    22  H    2.449269   2.157216   3.244824   2.964461   2.079191
    23  H    3.794224   2.855910   3.927102   4.317704   3.318250
    24  H    4.451857   3.477176   4.089354   3.909672   2.588015
    25  H    4.418132   3.113937   3.386692   4.200162   3.596709
    26  H    6.860795   6.738851   5.598220   4.443220   5.274755
    27  H    4.975019   3.968882   2.732064   2.646979   2.957996
    28  H    7.167981   6.316533   4.947273   4.556547   5.013557
                    6          7          8          9         10
     6  C    0.000000
     7  C    1.518242   0.000000
     8  O    2.427994   1.405359   0.000000
     9  N    3.553965   4.463772   4.312588   0.000000
    10  C    4.546088   5.609830   5.611969   1.360206   0.000000
    11  N    5.773756   6.689187   6.521581   2.340747   1.366472
    12  O    4.661034   5.930914   6.194162   2.279985   1.242023
    13  C    4.146981   4.655015   4.108130   1.353607   2.358796
    14  C    5.468480   5.914188   5.288163   2.358640   2.746697
    15  C    6.200770   6.863982   6.434906   2.748411   2.391976
    16  O    7.426706   8.035175   7.547784   3.991447   3.510923
    17  H    2.561786   3.958661   4.766246   4.271230   4.768798
    18  H    2.197447   2.601888   2.817504   4.550800   5.655353
    19  H    3.317488   4.298592   4.125373   2.912955   3.791689
    20  H    2.689841   3.089129   2.493098   2.779592   4.073028
    21  H    2.640578   4.054919   4.458776   2.099833   2.496151
    22  H    1.094164   2.121679   3.339988   4.265446   5.041075
    23  H    2.157282   1.108452   2.097329   5.452307   6.579019
    24  H    2.134055   1.097288   2.038059   4.756297   5.798071
    25  H    2.986397   1.990542   0.983181   4.970197   6.299274
    26  H    6.564745   7.559619   7.480528   3.257849   2.054795
    27  H    3.848603   4.067395   3.278114   2.096629   3.320156
    28  H    6.144462   6.372501   5.553260   3.340519   3.821627
                   11         12         13         14         15
    11  N    0.000000
    12  O    2.253150   0.000000
    13  C    2.699715   3.503319   0.000000
    14  C    2.358104   3.988444   1.356864   0.000000
    15  C    1.356811   3.506447   2.385788   1.402177   0.000000
    16  O    2.247874   4.501003   3.536449   2.326229   1.243610
    17  H    6.129122   4.325386   5.323848   6.571993   6.941591
    18  H    6.850974   5.827189   4.936960   6.273106   7.158155
    19  H    4.846454   4.071102   3.425075   4.572731   5.210475
    20  H    5.003538   4.697079   2.726358   3.993797   5.020289
    21  H    3.856196   2.275842   3.334301   4.452324   4.682268
    22  H    6.322177   4.908048   5.037129   6.320827   6.908187
    23  H    7.713693   6.799843   5.689403   6.971367   7.928706
    24  H    6.800330   6.115724   4.925178   6.076208   6.963348
    25  H    7.217858   6.872105   4.722950   5.896262   7.096562
    26  H    1.021751   2.462633   3.721322   3.289040   2.057652
    27  H    3.764403   4.371208   1.064698   2.094833   3.350361
    28  H    3.328546   5.063248   2.127650   1.075006   2.137330
                   16         17         18         19         20
    16  O    0.000000
    17  H    8.159527   0.000000
    18  H    8.375622   2.819086   0.000000
    19  H    6.371540   3.097610   2.695884   0.000000
    20  H    6.184073   3.877818   2.397144   1.828608   0.000000
    21  H    5.891558   2.282397   3.601240   2.417002   3.041086
    22  H    8.126631   2.315026   2.798502   4.064857   3.735877
    23  H    9.111810   4.144971   2.587664   4.844899   3.801249
    24  H    8.082934   4.599953   3.672069   5.154136   3.907306
    25  H    8.201350   5.039837   2.621241   4.238150   2.678921
    26  H    2.474895   6.681695   7.688692   5.624457   5.952148
    27  H    4.411986   5.356415   4.412547   3.332877   2.120862
    28  H    2.596932   7.444911   6.820093   5.261032   4.463399
                   21         22         23         24         25
    21  H    0.000000
    22  H    2.963946   0.000000
    23  H    4.774614   2.402588   0.000000
    24  H    4.503974   2.439860   1.756948   0.000000
    25  H    5.005914   3.857593   2.222071   2.787916   0.000000
    26  H    4.467748   7.007671   8.567703   7.631543   8.190521
    27  H    3.691964   4.856491   5.063649   4.421762   3.814316
    28  H    5.414595   7.062798   7.414223   6.516068   6.092809
                   26         27         28
    26  H    0.000000
    27  H    4.785985   0.000000
    28  H    4.176850   2.441699   0.000000
 Stoichiometry    C9H12N2O5
 Framework group  C1[X(C9H12N2O5)]
 Deg. of freedom    78
 Full point group                 C1      NOp   1
 Largest Abelian subgroup         C1      NOp   1
 Largest concise Abelian subgroup C1      NOp   1
                         Standard orientation:                         
 ---------------------------------------------------------------------
 Center     Atomic      Atomic             Coordinates (Angstroms)
 Number     Number       Type             X           Y           Z
 ---------------------------------------------------------------------
      1          8           0        2.862291    1.933152    0.771336
      2          6           0        2.727369    0.598246    0.732614
      3          6           0        1.322874    0.222834    1.272936
      4          6           0        0.496554    0.598905    0.027438
      5          8           0        1.230509   -0.033991   -0.986846
      6          6           0        2.598949    0.088949   -0.710221
      7          6           0        3.239163   -1.271835   -0.918674
      8          8           0        2.694305   -2.251456   -0.071028
      9          7           0       -0.870241    0.172606    0.056850
     10          6           0       -1.822116    1.070771   -0.313818
     11          7           0       -3.129754    0.674738   -0.291804
     12          8           0       -1.541461    2.229054   -0.663438
     13          6           0       -1.211956   -1.082659    0.430739
     14          6           0       -2.510474   -1.475717    0.451627
     15          6           0       -3.515766   -0.572019    0.079043
     16          8           0       -4.723929   -0.866802    0.075885
     17          1           0        2.703470    2.511047    0.117585
     18          1           0        3.509331    0.077143    1.289739
     19          1           0        1.062304    0.828671    2.135348
     20          1           0        1.304895   -0.850321    1.452750
     21          1           0        0.587414    1.678131   -0.077071
     22          1           0        3.096262    0.793281   -1.383860
     23          1           0        4.338926   -1.182178   -0.813089
     24          1           0        3.066501   -1.577832   -1.958190
     25          1           0        3.298339   -2.462364    0.675501
     26          1           0       -3.841288    1.353582   -0.569050
     27          1           0       -0.453434   -1.775366    0.710707
     28          1           0       -2.794047   -2.469709    0.746930
 ---------------------------------------------------------------------
 Rotational constants (GHZ):      1.1073560      0.3143146      0.2705790
 Standard basis: 3-21G (6D, 7F)
 There are   168 symmetry adapted basis functions of A   symmetry.
 Integral buffers will be    131072 words long.
 Raffenetti 1 integral format.
 Two-electron integral symmetry is turned on.
   168 basis functions,   276 primitive gaussians,   168 cartesian basis functions
    60 alpha electrons       60 beta electrons
       nuclear repulsion energy      1182.5986336848 Hartrees.
 NAtoms=   28 NActive=   28 NUniq=   28 SFac= 1.00D+00 NAtFMM=   60 NAOKFM=F Big=F
 One-electron integrals computed using PRISM.
 NBasis=   168 RedAO= T  NBF=   168
 NBsUse=   168 1.00D-06 NBFU=   168
 Initial guess read from the read-write file.
 B after Tr=     0.000000    0.000000    0.000000
         Rot=    1.000000    0.000000    0.000000    0.000000 Ang=   0.00 deg.
 Initial guess orbital symmetries:
       Occupied  (A) (A) (A) (A) (A) (A) (A) (A) (A) (A) (A) (A)
                 (A) (A) (A) (A) (A) (A) (A) (A) (A) (A) (A) (A)
                 (A) (A) (A) (A) (A) (A) (A) (A) (A) (A) (A) (A)
                 (A) (A) (A) (A) (A) (A) (A) (A) (A) (A) (A) (A)
                 (A) (A) (A) (A) (A) (A) (A) (A) (A) (A) (A) (A)
       Virtual   (A) (A) (A) (A) (A) (A) (A) (A) (A) (A) (A) (A)
                 (A) (A) (A) (A) (A) (A) (A) (A) (A) (A) (A) (A)
                 (A) (A) (A) (A) (A) (A) (A) (A) (A) (A) (A) (A)
                 (A) (A) (A) (A) (A) (A) (A) (A) (A) (A) (A) (A)
                 (A) (A) (A) (A) (A) (A) (A) (A) (A) (A) (A) (A)
                 (A) (A) (A) (A) (A) (A) (A) (A) (A) (A) (A) (A)
                 (A) (A) (A) (A) (A) (A) (A) (A) (A) (A) (A) (A)
                 (A) (A) (A) (A) (A) (A) (A) (A) (A) (A) (A) (A)
                 (A) (A) (A) (A) (A) (A) (A) (A) (A) (A) (A) (A)
 Harris functional with IExCor=  205 diagonalized for initial guess.
[...]
                 (A) (A) (A) (A) (A) (A) (A) (A) (A) (A) (A) (A)
                 (A) (A) (A) (A) (A) (A) (A) (A) (A) (A) (A) (A)
                 (A) (A) (A) (A) (A) (A) (A) (A) (A) (A) (A) (A)
                 (A) (A) (A) (A) (A) (A) (A) (A) (A) (A) (A) (A)
                 (A) (A) (A) (A) (A) (A) (A) (A) (A) (A) (A) (A)
                 (A) (A) (A) (A) (A) (A) (A) (A) (A) (A) (A) (A)
                 (A) (A) (A) (A) (A) (A) (A) (A) (A) (A) (A) (A)
 The electronic state is 1-A.
 Alpha  occ. eigenvalues --  -19.17991 -19.17088 -19.16162 -19.12945 -19.11870
 Alpha  occ. eigenvalues --  -14.40282 -14.38345 -10.33659 -10.29896 -10.29135
 Alpha  occ. eigenvalues --  -10.25780 -10.25682 -10.25624 -10.25404 -10.20237
 Alpha  occ. eigenvalues --  -10.19758  -1.08018  -1.06500  -1.04603  -1.03516
 Alpha  occ. eigenvalues --   -1.03172  -0.97393  -0.92445  -0.80380  -0.79349
 Alpha  occ. eigenvalues --   -0.77435  -0.69931  -0.68539  -0.64987  -0.62344
 Alpha  occ. eigenvalues --   -0.60955  -0.56453  -0.55716  -0.55468  -0.52225
 Alpha  occ. eigenvalues --   -0.51248  -0.49707  -0.48147  -0.46867  -0.46195
 Alpha  occ. eigenvalues --   -0.45091  -0.44630  -0.44413  -0.43443  -0.41337
 Alpha  occ. eigenvalues --   -0.41030  -0.39853  -0.39673  -0.38110  -0.37088
 Alpha  occ. eigenvalues --   -0.36230  -0.35116  -0.33529  -0.30457  -0.29608
 Alpha  occ. eigenvalues --   -0.28416  -0.27924  -0.27472  -0.25542  -0.23922
 Alpha virt. eigenvalues --   -0.03368   0.01484   0.03999   0.05476   0.08891
 Alpha virt. eigenvalues --    0.09776   0.10163   0.10940   0.12490   0.12823
 Alpha virt. eigenvalues --    0.13229   0.13959   0.15663   0.16322   0.16836
 Alpha virt. eigenvalues --    0.17370   0.18489   0.19010   0.19723   0.21078
 Alpha virt. eigenvalues --    0.22487   0.23417   0.24407   0.25391   0.28151
 Alpha virt. eigenvalues --    0.28384   0.29540   0.31281   0.33935   0.35684
 Alpha virt. eigenvalues --    0.39601   0.46807   0.47728   0.49407   0.51421
 Alpha virt. eigenvalues --    0.52079   0.52722   0.53719   0.54243   0.55151
 Alpha virt. eigenvalues --    0.56597   0.57671   0.58453   0.58718   0.59507
 Alpha virt. eigenvalues --    0.62040   0.63455   0.63965   0.64286   0.65740
 Alpha virt. eigenvalues --    0.67204   0.67673   0.68962   0.70972   0.74223
 Alpha virt. eigenvalues --    0.75561   0.76837   0.78586   0.79565   0.79848
 Alpha virt. eigenvalues --    0.81579   0.82003   0.82896   0.83433   0.84696
 Alpha virt. eigenvalues --    0.85490   0.86109   0.86959   0.87547   0.88862
 Alpha virt. eigenvalues --    0.89597   0.90777   0.91918   0.92144   0.94074
 Alpha virt. eigenvalues --    0.96690   0.96946   1.00136   1.00804   1.02651
 Alpha virt. eigenvalues --    1.03519   1.03699   1.04730   1.05547   1.08026
 Alpha virt. eigenvalues --    1.10446   1.11856   1.13515   1.14611   1.17283
 Alpha virt. eigenvalues --    1.17672   1.19992   1.22933   1.26032   1.28218
 Alpha virt. eigenvalues --    1.30180   1.33393   1.35333   1.37001   1.38293
 Alpha virt. eigenvalues --    1.39539   1.41425   1.43510   1.45293   1.45957
 Alpha virt. eigenvalues --    1.48004   1.49802   1.51204   1.54872   1.56255
 Alpha virt. eigenvalues --    1.58192   1.60565   1.62822   1.65167   1.67652
 Alpha virt. eigenvalues --    1.68532   1.71334   1.75193   1.76302   1.77128
 Alpha virt. eigenvalues --    1.78950   1.79387   1.79520   1.80906   1.81660
 Alpha virt. eigenvalues --    1.82736   1.83969   1.86218   1.86633   1.88047
 Alpha virt. eigenvalues --    1.88550   1.91361   1.92206   1.95907   1.96806
 Alpha virt. eigenvalues --    1.97578   1.97801   1.99142   2.00448   2.01997
 Alpha virt. eigenvalues --    2.04334   2.07770   2.08239   2.11019   2.13211
 Alpha virt. eigenvalues --    2.13779   2.15518   2.16999   2.20372   2.20727
 Alpha virt. eigenvalues --    2.23361   2.24741   2.29152   2.30724   2.31311
 Alpha virt. eigenvalues --    2.31993   2.33598   2.36615   2.38454   2.41898
 Alpha virt. eigenvalues --    2.43394   2.46121   2.49111   2.51841   2.53879
 Alpha virt. eigenvalues --    2.57629   2.59163   2.60086   2.61475   2.63989
 Alpha virt. eigenvalues --    2.64901   2.65108   2.68078   2.71807   2.73952
 Alpha virt. eigenvalues --    2.74939   2.77922   2.81877   2.83327   2.87095
 Alpha virt. eigenvalues --    2.89973   2.93325   2.97422   2.99158   3.01139
 Alpha virt. eigenvalues --    3.02580   3.24384   3.40030   3.76043   3.87308
 Alpha virt. eigenvalues --    3.97530   3.99313   4.03669   4.09117   4.17131
 Alpha virt. eigenvalues --    4.20492   4.27565   4.31367   4.40425   4.45650
 Alpha virt. eigenvalues --    4.57684   4.62863   4.64716   4.70734
          Condensed to atoms (all electrons):
              1          2          3          4          5          6
     1  O    8.245633   0.262525  -0.049865   0.003612  -0.000269  -0.040464
     2  C    0.262525   4.840658   0.327698  -0.050273  -0.040525   0.318087
     3  C   -0.049865   0.327698   5.294491   0.327779  -0.055265  -0.066793
     4  C    0.003612  -0.050273   0.327779   4.721646   0.230910  -0.056455
     5  O   -0.000269  -0.040525  -0.055265   0.230910   8.305598   0.234555
     6  C   -0.040464   0.318087  -0.066793  -0.056455   0.234555   4.976838
     7  C    0.003317  -0.016897  -0.003191   0.003985  -0.049349   0.303449
     8  O    0.000026  -0.000570  -0.002889  -0.000094   0.001882  -0.050773
     9  N    0.000042   0.003429  -0.042584   0.275670  -0.067067   0.004704
    10  C   -0.000001   0.000058   0.001472  -0.023935   0.001395  -0.000072
    11  N    0.000000   0.000001  -0.000145   0.002850  -0.000038   0.000003
    12  O    0.000000   0.000019   0.000020  -0.004808   0.000154  -0.000003
    13  C    0.000001   0.000072  -0.005446  -0.023324   0.010008   0.000089
    14  C    0.000000  -0.000012  -0.000007   0.003769   0.000676  -0.000017
    15  C    0.000000   0.000000   0.000013   0.000114  -0.000004   0.000000
    16  O    0.000000   0.000000   0.000000   0.000002   0.000000   0.000000
    17  H    0.236236  -0.033727  -0.007188   0.005232   0.000792  -0.003650
    18  H   -0.041242   0.382127  -0.038469   0.005792   0.002822  -0.049680
    19  H    0.000779  -0.029536   0.353263  -0.025219   0.003134   0.005990
    20  H    0.003241  -0.020341   0.340901  -0.027406  -0.001123   0.003600
    21  H    0.001371  -0.001028  -0.049852   0.377560  -0.036439   0.001502
    22  H    0.003101  -0.045992   0.006372   0.001951  -0.038296   0.366456
    23  H    0.000071  -0.005621   0.000667  -0.000253   0.003650  -0.032652
    24  H   -0.000064   0.005419  -0.000415  -0.000312  -0.001590  -0.030560
    25  H    0.000000   0.000020   0.000119  -0.000013  -0.000146   0.006557
    26  H    0.000000   0.000000   0.000002  -0.000081   0.000001   0.000000
    27  H    0.000001  -0.000655  -0.000785  -0.003882   0.006016  -0.002600
    28  H    0.000000   0.000000   0.000000  -0.000129   0.000004   0.000000
              7          8          9         10         11         12
     1  O    0.003317   0.000026   0.000042  -0.000001   0.000000   0.000000
     2  C   -0.016897  -0.000570   0.003429   0.000058   0.000001   0.000019
     3  C   -0.003191  -0.002889  -0.042584   0.001472  -0.000145   0.000020
     4  C    0.003985  -0.000094   0.275670  -0.023935   0.002850  -0.004808
     5  O   -0.049349   0.001882  -0.067067   0.001395  -0.000038   0.000154
     6  C    0.303449  -0.050773   0.004704  -0.000072   0.000003  -0.000003
     7  C    4.949926   0.234993   0.000323   0.000008   0.000000   0.000000
     8  O    0.234993   8.234756   0.000047  -0.000004   0.000000   0.000000
     9  N    0.000323   0.000047   7.143467   0.235715  -0.092444  -0.095139
    10  C    0.000008  -0.000004   0.235715   4.184529   0.257043   0.609305
    11  N    0.000000   0.000000  -0.092444   0.257043   7.347830  -0.083500
    12  O    0.000000   0.000000  -0.095139   0.609305  -0.083500   8.057631
    13  C    0.000609  -0.012957   0.298571  -0.035763  -0.005716   0.001329
    14  C   -0.000020   0.000151  -0.029563  -0.005607  -0.104926   0.000327
    15  C    0.000000  -0.000001  -0.015491  -0.004009   0.192971   0.000626
    16  O    0.000000   0.000000   0.000053   0.001670  -0.091521  -0.000021
    17  H    0.000138  -0.000002   0.000020  -0.000008   0.000000  -0.000007
    18  H   -0.000763   0.003275  -0.000069   0.000001   0.000000   0.000000
    19  H   -0.000225   0.000132   0.000817   0.000558   0.000000   0.000221
    20  H   -0.001049   0.007577  -0.007956  -0.000209  -0.000015  -0.000031
    21  H   -0.000354   0.000004  -0.059949  -0.003651   0.000945   0.024160
    22  H   -0.054099   0.002856  -0.000276  -0.000004   0.000000   0.000000
    23  H    0.346038  -0.035722  -0.000004   0.000000   0.000000   0.000000
    24  H    0.360250  -0.036715  -0.000037   0.000000   0.000000   0.000000
    25  H   -0.020360   0.235950   0.000008   0.000000   0.000000   0.000000
    26  H    0.000000   0.000000   0.005118  -0.013509   0.274696   0.004156
    27  H   -0.002386   0.034878  -0.047201   0.001812  -0.000360  -0.000102
    28  H    0.000001   0.000000   0.003300   0.000341   0.004977   0.000003
             13         14         15         16         17         18
     1  O    0.000001   0.000000   0.000000   0.000000   0.236236  -0.041242
     2  C    0.000072  -0.000012   0.000000   0.000000  -0.033727   0.382127
     3  C   -0.005446  -0.000007   0.000013   0.000000  -0.007188  -0.038469
     4  C   -0.023324   0.003769   0.000114   0.000002   0.005232   0.005792
     5  O    0.010008   0.000676  -0.000004   0.000000   0.000792   0.002822
     6  C    0.000089  -0.000017   0.000000   0.000000  -0.003650  -0.049680
     7  C    0.000609  -0.000020   0.000000   0.000000   0.000138  -0.000763
     8  O   -0.012957   0.000151  -0.000001   0.000000  -0.000002   0.003275
     9  N    0.298571  -0.029563  -0.015491   0.000053   0.000020  -0.000069
    10  C   -0.035763  -0.005607  -0.004009   0.001670  -0.000008   0.000001
    11  N   -0.005716  -0.104926   0.192971  -0.091521   0.000000   0.000000
    12  O    0.001329   0.000327   0.000626  -0.000021  -0.000007   0.000000
    13  C    4.874997   0.496859  -0.008022   0.004488   0.000001  -0.000004
    14  C    0.496859   5.254771   0.377621  -0.072119   0.000000   0.000000
    15  C   -0.008022   0.377621   4.264657   0.600342   0.000000   0.000000
    16  O    0.004488  -0.072119   0.600342   8.057567   0.000000   0.000000
    17  H    0.000001   0.000000   0.000000   0.000000   0.396047   0.007130
    18  H   -0.000004   0.000000   0.000000   0.000000   0.007130   0.569007
    19  H   -0.000040   0.000006  -0.000001   0.000000  -0.000024   0.000534
    20  H    0.005634  -0.000040   0.000005   0.000000   0.000022  -0.003937
    21  H    0.006424  -0.000096  -0.000064   0.000000   0.001421  -0.000078
    22  H    0.000047   0.000001   0.000000   0.000000   0.000462   0.002292
    23  H   -0.000058   0.000001   0.000000   0.000000   0.000004   0.000497
    24  H    0.000297  -0.000001   0.000000   0.000000   0.000004   0.000196
    25  H    0.000556  -0.000032   0.000000   0.000000   0.000000  -0.000178
    26  H   -0.000607   0.007544  -0.007690   0.006774   0.000000   0.000000
    27  H    0.334171  -0.027715   0.002533  -0.000053   0.000002  -0.000008
    28  H   -0.041115   0.366089  -0.027258  -0.000908   0.000000   0.000000
             19         20         21         22         23         24
     1  O    0.000779   0.003241   0.001371   0.003101   0.000071  -0.000064
     2  C   -0.029536  -0.020341  -0.001028  -0.045992  -0.005621   0.005419
     3  C    0.353263   0.340901  -0.049852   0.006372   0.000667  -0.000415
     4  C   -0.025219  -0.027406   0.377560   0.001951  -0.000253  -0.000312
     5  O    0.003134  -0.001123  -0.036439  -0.038296   0.003650  -0.001590
     6  C    0.005990   0.003600   0.001502   0.366456  -0.032652  -0.030560
     7  C   -0.000225  -0.001049  -0.000354  -0.054099   0.346038   0.360250
     8  O    0.000132   0.007577   0.000004   0.002856  -0.035722  -0.036715
     9  N    0.000817  -0.007956  -0.059949  -0.000276  -0.000004  -0.000037
    10  C    0.000558  -0.000209  -0.003651  -0.000004   0.000000   0.000000
    11  N    0.000000  -0.000015   0.000945   0.000000   0.000000   0.000000
    12  O    0.000221  -0.000031   0.024160   0.000000   0.000000   0.000000
    13  C   -0.000040   0.005634   0.006424   0.000047  -0.000058   0.000297
    14  C    0.000006  -0.000040  -0.000096   0.000001   0.000001  -0.000001
    15  C   -0.000001   0.000005  -0.000064   0.000000   0.000000   0.000000
    16  O    0.000000   0.000000   0.000000   0.000000   0.000000   0.000000
    17  H   -0.000024   0.000022   0.001421   0.000462   0.000004   0.000004
    18  H    0.000534  -0.003937  -0.000078   0.002292   0.000497   0.000196
    19  H    0.541211  -0.022939  -0.002243  -0.000103   0.000003   0.000007
    20  H   -0.022939   0.539933   0.004214  -0.000166   0.000031   0.000127
    21  H   -0.002243   0.004214   0.555716   0.000515   0.000012  -0.000005
    22  H   -0.000103  -0.000166   0.000515   0.602496   0.004241  -0.002399
    23  H    0.000003   0.000031   0.000012   0.004241   0.634536  -0.049070
    24  H    0.000007   0.000127  -0.000005  -0.002399  -0.049070   0.610095
    25  H   -0.000004  -0.000115   0.000000  -0.000251  -0.004088  -0.003795
    26  H    0.000000   0.000000  -0.000011   0.000000   0.000000   0.000000
    27  H    0.000047   0.001928   0.000307   0.000072   0.000389  -0.000590
    28  H    0.000000   0.000011   0.000003   0.000000   0.000000   0.000000
             25         26         27         28
     1  O    0.000000   0.000000   0.000001   0.000000
     2  C    0.000020   0.000000  -0.000655   0.000000
     3  C    0.000119   0.000002  -0.000785   0.000000
     4  C   -0.000013  -0.000081  -0.003882  -0.000129
     5  O   -0.000146   0.000001   0.006016   0.000004
     6  C    0.006557   0.000000  -0.002600   0.000000
     7  C   -0.020360   0.000000  -0.002386   0.000001
     8  O    0.235950   0.000000   0.034878   0.000000
     9  N    0.000008   0.005118  -0.047201   0.003300
    10  C    0.000000  -0.013509   0.001812   0.000341
    11  N    0.000000   0.274696  -0.000360   0.004977
    12  O    0.000000   0.004156  -0.000102   0.000003
    13  C    0.000556  -0.000607   0.334171  -0.041115
    14  C   -0.000032   0.007544  -0.027715   0.366089
    15  C    0.000000  -0.007690   0.002533  -0.027258
    16  O    0.000000   0.006774  -0.000053  -0.000908
    17  H    0.000000   0.000000   0.000002   0.000000
    18  H   -0.000178   0.000000  -0.000008   0.000000
    19  H   -0.000004   0.000000   0.000047   0.000000
    20  H   -0.000115   0.000000   0.001928   0.000011
    21  H    0.000000  -0.000011   0.000307   0.000003
    22  H   -0.000251   0.000000   0.000072   0.000000
    23  H   -0.004088   0.000000   0.000389   0.000000
    24  H   -0.003795   0.000000  -0.000590   0.000000
    25  H    0.379394   0.000000  -0.001357   0.000000
    26  H    0.000000   0.369659   0.000024  -0.000137
    27  H   -0.001357   0.000024   0.497441  -0.003530
    28  H    0.000000  -0.000137  -0.003530   0.540819
 Mulliken atomic charges:
              1
     1  O   -0.628051
     2  C    0.105063
     3  C   -0.329907
     4  C    0.255310
     5  O   -0.511484
     6  C    0.111888
     7  C   -0.054346
     8  O   -0.616800
     9  N   -0.513504
    10  C    0.792864
    11  N   -0.702654
    12  O   -0.514340
    13  C    0.098900
    14  C   -0.267660
    15  C    0.623658
    16  O   -0.506273
    17  H    0.397097
    18  H    0.160755
    19  H    0.173630
    20  H    0.178103
    21  H    0.179614
    22  H    0.150724
    23  H    0.137327
    24  H    0.149157
    25  H    0.407733
    26  H    0.354062
    27  H    0.211603
    28  H    0.157530
 Sum of Mulliken atomic charges =   0.00000
 Mulliken charges with hydrogens summed into heavy atoms:
              1
     1  O   -0.230954
     2  C    0.265817
     3  C    0.021827
     4  C    0.434924
     5  O   -0.511484
     6  C    0.262612
     7  C    0.232137
     8  O   -0.209067
     9  N   -0.513504
    10  C    0.792864
    11  N   -0.348592
    12  O   -0.514340
    13  C    0.310503
    14  C   -0.110130
    15  C    0.623658
    16  O   -0.506273
 Sum of Mulliken charges with hydrogens summed into heavy atoms =   0.00000
 Electronic spatial extent (au):  <R**2>=           3946.4824
 Charge=              0.0000 electrons
 Dipole moment (field-independent basis, Debye):
    X=              5.0874    Y=             -2.9301    Z=              0.0112  Tot=              5.8708
 Quadrupole moment (field-independent basis, Debye-Ang):
   XX=           -109.1622   YY=            -86.1766   ZZ=            -92.3924
   XY=            -12.8514   XZ=             -2.9127   YZ=             -0.1929
 Traceless Quadrupole moment (field-independent basis, Debye-Ang):
   XX=            -13.2518   YY=              9.7338   ZZ=              3.5180
   XY=            -12.8514   XZ=             -2.9127   YZ=             -0.1929
 Octapole moment (field-independent basis, Debye-Ang**2):
  XXX=             95.7203  YYY=            -54.9061  ZZZ=              0.8515  XYY=             35.6319
  XXY=              7.8117  XXZ=            -23.1642  XZZ=              4.0777  YZZ=              1.6714
  YYZ=             -0.8186  XYZ=             -6.8587
 Hexadecapole moment (field-independent basis, Debye-Ang**3):
 XXXX=          -4194.8839 YYYY=           -932.6139 ZZZZ=           -280.8166 XXXY=           -382.3498
 XXXZ=            -13.5890 YYYX=            -32.0806 YYYZ=            -22.3967 ZZZX=              5.6423
 ZZZY=             -1.9873 XXYY=           -745.4534 XXZZ=           -626.8415 YYZZ=           -221.6640
 XXYZ=            -21.1895 YYXZ=            -22.8726 ZZXY=             -6.0635
 N-N= 1.172804206439D+03 E-N=-4.298707392373D+03  KE= 8.284096685505D+02
 1|1|UNPC-DESKTOP-N7IAV1E|FOpt|RB3LYP|6-31G(d)|C9H12N2O5|KAWAS|13-Mar-2
 019|0||#opt b3lyp/6-31g(d) Geom=AllCheck Guess=Read||Conformer_0 at -6
 1.764080507159065 MMFF energy generated from O[C@H]1C[C@@H](O[C@@H]1CO
 )N(C(N2)=O)C=CC2=O||0,1|O,-2.8169134374,-0.2446507153,2.2568586317|C,-
 2.2454155099,0.3579151374,1.101735078|C,-0.7720542231,0.7455360883,1.2
 763364864|C,-0.0267721568,-0.5254569492,0.8420623799|O,-0.8587648744,-
 1.1551711314,-0.1313701943|C,-2.1918831916,-0.615497475,-0.1028594735|
 C,-2.5372604208,0.0017497486,-1.4511221315|O,-1.7670826949,1.188986809
 ,-1.6378729274|N,1.2965705804,-0.2954406183,0.2594417547|C,2.415240351
 7,-0.7920742661,0.9454161728|N,3.6132849668,-0.5539966328,0.2983988154
 |O,2.3434941699,-1.3690064649,2.0190977763|C,1.4176140239,0.3424485491
 ,-0.9598105441|C,2.60840912,0.5554177812,-1.5610478256|C,3.8388865118,
 0.0978701607,-0.9342901071|O,4.9733383061,0.2261622233,-1.3653653685|H
 ,-2.2775125514,-1.0128559037,2.5054082019|H,-2.8757644229,1.2246217684
 ,0.8925989255|H,-0.5411734534,1.0386474634,2.3036828471|H,-0.525636054
 ,1.5731499895,0.6052952814|H,0.1550634652,-1.2032547302,1.6798744078|H
 ,-2.8941322552,-1.4405856684,0.0738374116|H,-3.6149848746,0.2263740717
 ,-1.466853517|H,-2.3268599545,-0.7355712466,-2.2388622901|H,-1.9785909
 622,1.5543145333,-2.5100719464|H,4.4365813422,-0.8978831671,0.77997885
 93|H,0.4744868422,0.6506857435,-1.3990994406|H,2.6778313569,1.05766490
 15,-2.5167972636||Version=EM64W-G09RevC.01|State=1-A|HF=-835.8045844|R
 MSD=3.651e-009|RMSF=2.287e-005|Dipole=-2.1062884,0.4795228,-0.8176715|
 Quadrupole=-7.2742034,3.3775548,3.8966486,-1.2133371,11.3846769,-1.818
 6818|PG=C01 [X(C9H12N2O5)]||@


 MICRO CREDO - NEVER TRUST A COMPUTER BIGGER
               BIGGER THAN YOU CAN LIFT.
 Job cpu time:  0 days  1 hours 51 minutes 15.0 seconds.
 File lengths (MBytes):  RWF=     55 Int=      0 D2E=      0 Chk=      6 Scr=      1
 Normal termination of Gaussian 09 at Wed Mar 13 21:30:29 2019.
