 Entering Gaussian System, Link 0=C:\G09W\g09.exe
 Input=entry3_confs_1.gjf
 Output=C:\Users\kawas\Desktop\fluorescene_okuda\calcs\nucleosides_trial2\entries\entry3\entry3_confs_1.out
 Initial command:
 C:/G09W\l1.exe .\Gau-1996.inp C:\Users\kawas\Desktop\fluorescene_okuda\calcs\nucleosides_trial2\entries\entry3\entry3_confs_1.out /scrdir=.\
 Entering Link 1 = C:/G09W\l1.exe PID=     22068.
  
 Copyright (c) 1988,1990,1992,1993,1995,1998,2003,2009,2011,
            Gaussian, Inc.  All Rights Reserved.
  
 This is part of the Gaussian(R) 09 program.  It is based on
 the Gaussian(R) 03 system (copyright 2003, Gaussian, Inc.),
 the Gaussian(R) 98 system (copyright 1998, Gaussian, Inc.),
 the Gaussian(R) 94 system (copyright 1995, Gaussian, Inc.),
 the Gaussian 92(TM) system (copyright 1992, Gaussian, Inc.),
 the Gaussian 90(TM) system (copyright 1990, Gaussian, Inc.),
 the Gaussian 88(TM) system (copyright 1988, Gaussian, Inc.),
 the Gaussian 86(TM) system (copyright 1986, Carnegie Mellon
 University), and the Gaussian 82(TM) system (copyright 1983,
 Carnegie Mellon University). Gaussian is a federally registered
 trademark of Gaussian, Inc.
  
 This software contains proprietary and confidential information,
 including trade secrets, belonging to Gaussian, Inc.
  
 This software is provided under written license and may be
 used, copied, transmitted, or stored only in accord with that
 written license.
  
 The following legend is applicable only to US Government
 contracts under FAR:
  
                    RESTRICTED RIGHTS LEGEND
  
 Use, reproduction and disclosure by the US Government is
 subject to restrictions as set forth in subparagraphs (a)
 and (c) of the Commercial Computer Software - Restricted
 Rights clause in FAR 52.227-19.
  
 Gaussian, Inc.
 340 Quinnipiac St., Bldg. 40, Wallingford CT 06492
  
  
 ---------------------------------------------------------------
 Warning -- This program may not be used in any manner that
 competes with the business of Gaussian, Inc. or will provide
 assistance to any competitor of Gaussian, Inc.  The licensee
 of this program is prohibited from giving any competitor of
 Gaussian, Inc. access to this program.  By using this program,
 the user acknowledges that Gaussian, Inc. is engaged in the
 business of creating and licensing software in the field of
 computational chemistry and represents and warrants to the
 licensee that it is not a competitor of Gaussian, Inc. and that
 it will not use this program in any manner prohibited above.
 ---------------------------------------------------------------
  

 Cite this work as:
 Gaussian 09, Revision C.01,
 M. J. Frisch, G. W. Trucks, H. B. Schlegel, G. E. Scuseria, 
 M. A. Robb, J. R. Cheeseman, G. Scalmani, V. Barone, B. Mennucci, 
 G. A. Petersson, H. Nakatsuji, M. Caricato, X. Li, H. P. Hratchian, 
 A. F. Izmaylov, J. Bloino, G. Zheng, J. L. Sonnenberg, M. Hada, 
 M. Ehara, K. Toyota, R. Fukuda, J. Hasegawa, M. Ishida, T. Nakajima, 
 Y. Honda, O. Kitao, H. Nakai, T. Vreven, J. A. Montgomery, Jr., 
 J. E. Peralta, F. Ogliaro, M. Bearpark, J. J. Heyd, E. Brothers, 
 K. N. Kudin, V. N. Staroverov, T. Keith, R. Kobayashi, J. Normand, 
 K. Raghavachari, A. Rendell, J. C. Burant, S. S. Iyengar, J. Tomasi, 
 M. Cossi, N. Rega, J. M. Millam, M. Klene, J. E. Knox, J. B. Cross, 
 V. Bakken, C. Adamo, J. Jaramillo, R. Gomperts, R. E. Stratmann, 
 O. Yazyev, A. J. Austin, R. Cammi, C. Pomelli, J. W. Ochterski, 
 R. L. Martin, K. Morokuma, V. G. Zakrzewski, G. A. Voth, 
 P. Salvador, J. J. Dannenberg, S. Dapprich, A. D. Daniels, 
 O. Farkas, J. B. Foresman, J. V. Ortiz, J. Cioslowski, 
 and D. J. Fox, Gaussian, Inc., Wallingford CT, 2010.
 
 ******************************************
 Gaussian 09:  EM64W-G09RevC.01 23-Sep-2011
                13-Mar-2019 
 ******************************************
 %chk=entry3_confs_1
 %nprocshared=4
 Will use up to    4 processors via shared memory.
 %mem=260MB
 -------------
 #opt hf/3-21g
 -------------
 1/18=20,19=15,38=1/1,3;
 2/9=110,12=2,17=6,18=5,40=1/2;
 3/5=5,11=9,16=1,25=1,30=1,71=1/1,2,3;
 4//1;
 5/5=2,38=5/2;
 6/7=2,8=2,9=2,10=2,28=1/1;
 7//1,2,3,16;
 1/18=20,19=15/3(2);
 2/9=110/2;
 99//99;
 2/9=110/2;
 3/5=5,11=9,16=1,25=1,30=1,71=1/1,2,3;
 4/5=5,16=3/1;
 5/5=2,38=5/2;
 7//1,2,3,16;
 1/18=20,19=15/3(-5);
 2/9=110/2;
 6/7=2,8=2,9=2,10=2,19=2,28=1/1;
 99/9=1/99;
 ----------------------------------------------------------------------
 Conformer_1 at -56.52007976270452 MMFF energy generated from O[C@H]1C[
 C@@H](O[C@@H]1CO)N(C(N2)=O)C=CC2=O
 ----------------------------------------------------------------------
 Charge =  0 Multiplicity = 1
 Symbolic Z-Matrix:
 O                     2.8844    1.0363    1.0535 
 C                     1.9072    0.2473    0.7496 
 C                     0.5871    0.9913    0.7166 
 C                    -0.0509    0.461    -0.5356 
 O                     0.65     -0.7257   -0.8462 
 C                     1.9683   -0.2845   -0.6692 
 C                     2.8815   -1.4721   -0.7966 
 O                     4.2077   -1.1528   -0.6393 
 N                    -1.4525    0.2603   -0.4488 
 C                    -1.9221   -0.8207    0.2277 
 N                    -3.2484   -1.0235    0.318 
 O                    -1.1226   -1.6359    0.7718 
 C                    -2.2908    1.1367   -1.0331 
 C                    -3.6518    0.9271   -0.9395 
 C                    -4.1136   -0.1746   -0.2496 
 O                    -5.3682   -0.3433   -0.1789 
 H                     3.1155    1.2703    1.8516 
 H                     1.8445   -0.6032    1.4838 
 H                     0.8024    2.0673    0.6164 
 H                    -0.0164    0.8262    1.624 
 H                     0.1828    1.1605   -1.3641 
 H                     2.2483    0.5271   -1.341 
 H                     2.7503   -1.8763   -1.8211 
 H                     2.6008   -2.2472   -0.0616 
 H                     4.4801   -0.3192   -1.0857 
 H                    -3.6124   -1.8679    0.8465 
 H                    -1.9116    2.0133   -1.5817 
 H                    -4.3493    1.6225   -1.4041 
 

 GradGradGradGradGradGradGradGradGradGradGradGradGradGradGradGradGradGrad
 Berny optimization.
 Initialization pass.
                           ----------------------------
                           !    Initial Parameters    !
                           ! (Angstroms and Degrees)  !
 --------------------------                            --------------------------
 ! Name  Definition              Value          Derivative Info.                !
 --------------------------------------------------------------------------------
 ! R1    R(1,2)                  1.2922         estimate D2E/DX2                !
 ! R2    R(1,17)                 0.8632         estimate D2E/DX2                !
 ! R3    R(2,3)                  1.5157         estimate D2E/DX2                !
 ! R4    R(2,6)                  1.5164         estimate D2E/DX2                !
 ! R5    R(2,18)                 1.1253         estimate D2E/DX2                !
 ! R6    R(3,4)                  1.5021         estimate D2E/DX2                !
 ! R7    R(3,19)                 1.1019         estimate D2E/DX2                !
 ! R8    R(3,20)                 1.1022         estimate D2E/DX2                !
 ! R9    R(4,5)                  1.4128         estimate D2E/DX2                !
 ! R10   R(4,9)                  1.4186         estimate D2E/DX2                !
 ! R11   R(4,21)                 1.1092         estimate D2E/DX2                !
 ! R12   R(5,6)                  1.4014         estimate D2E/DX2                !
 ! R13   R(6,7)                  1.5035         estimate D2E/DX2                !
 ! R14   R(6,22)                 1.0901         estimate D2E/DX2                !
 ! R15   R(7,8)                  1.3731         estimate D2E/DX2                !
 ! R16   R(7,23)                 1.1091         estimate D2E/DX2                !
 ! R17   R(7,24)                 1.1044         estimate D2E/DX2                !
 ! R18   R(8,25)                 0.9841         estimate D2E/DX2                !
 ! R19   R(9,10)                 1.3589         estimate D2E/DX2                !
 ! R20   R(9,13)                 1.3462         estimate D2E/DX2                !
 ! R21   R(10,11)                1.3448         estimate D2E/DX2                !
 ! R22   R(10,12)                1.2648         estimate D2E/DX2                !
 ! R23   R(11,15)                1.3384         estimate D2E/DX2                !
 ! R24   R(11,26)                1.0606         estimate D2E/DX2                !
 ! R25   R(13,14)                1.3802         estimate D2E/DX2                !
 ! R26   R(13,27)                1.1014         estimate D2E/DX2                !
 ! R27   R(14,15)                1.3795         estimate D2E/DX2                !
 ! R28   R(14,28)                1.089          estimate D2E/DX2                !
 ! R29   R(15,16)                1.2679         estimate D2E/DX2                !
 ! A1    A(2,1,17)             125.8325         estimate D2E/DX2                !
 ! A2    A(1,2,3)              111.349          estimate D2E/DX2                !
 ! A3    A(1,2,6)              113.8095         estimate D2E/DX2                !
 ! A4    A(1,2,18)             110.4976         estimate D2E/DX2                !
 ! A5    A(3,2,6)              100.77           estimate D2E/DX2                !
 ! A6    A(3,2,18)             109.6741         estimate D2E/DX2                !
 ! A7    A(6,2,18)             110.3426         estimate D2E/DX2                !
 ! A8    A(2,3,4)              102.4031         estimate D2E/DX2                !
 ! A9    A(2,3,19)             108.1277         estimate D2E/DX2                !
 ! A10   A(2,3,20)             112.6708         estimate D2E/DX2                !
 ! A11   A(4,3,19)             110.6054         estimate D2E/DX2                !
 ! A12   A(4,3,20)             113.6318         estimate D2E/DX2                !
 ! A13   A(19,3,20)            109.1546         estimate D2E/DX2                !
 ! A14   A(3,4,5)              105.6107         estimate D2E/DX2                !
 ! A15   A(3,4,9)              114.7466         estimate D2E/DX2                !
 ! A16   A(3,4,21)             108.092          estimate D2E/DX2                !
 ! A17   A(5,4,9)              112.6308         estimate D2E/DX2                !
 ! A18   A(5,4,21)             105.1278         estimate D2E/DX2                !
 ! A19   A(9,4,21)             110.0659         estimate D2E/DX2                !
 ! A20   A(4,5,6)              100.0484         estimate D2E/DX2                !
 ! A21   A(2,6,5)              100.9923         estimate D2E/DX2                !
 ! A22   A(2,6,7)              112.3807         estimate D2E/DX2                !
 ! A23   A(2,6,22)             109.0164         estimate D2E/DX2                !
 ! A24   A(5,6,7)              108.1788         estimate D2E/DX2                !
 ! A25   A(5,6,22)             113.4639         estimate D2E/DX2                !
 ! A26   A(7,6,22)             112.3237         estimate D2E/DX2                !
 ! A27   A(6,7,8)              113.1559         estimate D2E/DX2                !
 ! A28   A(6,7,23)             107.1141         estimate D2E/DX2                !
 ! A29   A(6,7,24)             110.0952         estimate D2E/DX2                !
 ! A30   A(8,7,23)             107.7462         estimate D2E/DX2                !
 ! A31   A(8,7,24)             109.416          estimate D2E/DX2                !
 ! A32   A(23,7,24)            109.2014         estimate D2E/DX2                !
 ! A33   A(7,8,25)             114.3536         estimate D2E/DX2                !
 ! A34   A(4,9,10)             118.9756         estimate D2E/DX2                !
 ! A35   A(4,9,13)             119.776          estimate D2E/DX2                !
 ! A36   A(10,9,13)            121.2484         estimate D2E/DX2                !
 ! A37   A(9,10,11)            119.6178         estimate D2E/DX2                !
 ! A38   A(9,10,12)            120.5578         estimate D2E/DX2                !
 ! A39   A(11,10,12)           119.8244         estimate D2E/DX2                !
 ! A40   A(10,11,15)           120.893          estimate D2E/DX2                !
 ! A41   A(10,11,26)           119.4743         estimate D2E/DX2                !
 ! A42   A(15,11,26)           119.6328         estimate D2E/DX2                !
 ! A43   A(9,13,14)            119.0615         estimate D2E/DX2                !
 ! A44   A(9,13,27)            121.3269         estimate D2E/DX2                !
 ! A45   A(14,13,27)           119.6115         estimate D2E/DX2                !
 ! A46   A(13,14,15)           119.032          estimate D2E/DX2                !
 ! A47   A(13,14,28)           120.3756         estimate D2E/DX2                !
 ! A48   A(15,14,28)           120.5924         estimate D2E/DX2                !
 ! A49   A(11,15,14)           120.1473         estimate D2E/DX2                !
 ! A50   A(11,15,16)           122.1156         estimate D2E/DX2                !
 ! A51   A(14,15,16)           117.7371         estimate D2E/DX2                !
 ! D1    D(17,1,2,3)            82.9345         estimate D2E/DX2                !
 ! D2    D(17,1,2,6)          -164.0008         estimate D2E/DX2                !
 ! D3    D(17,1,2,18)          -39.2081         estimate D2E/DX2                !
 ! D4    D(1,2,3,4)            136.0256         estimate D2E/DX2                !
 ! D5    D(1,2,3,19)            19.2077         estimate D2E/DX2                !
 ! D6    D(1,2,3,20)          -101.5173         estimate D2E/DX2                !
 ! D7    D(6,2,3,4)             14.9906         estimate D2E/DX2                !
 ! D8    D(6,2,3,19)          -101.8273         estimate D2E/DX2                !
 ! D9    D(6,2,3,20)           137.4477         estimate D2E/DX2                !
 ! D10   D(18,2,3,4)          -101.3569         estimate D2E/DX2                !
 ! D11   D(18,2,3,19)          141.8251         estimate D2E/DX2                !
 ! D12   D(18,2,3,20)           21.1002         estimate D2E/DX2                !
 ! D13   D(1,2,6,5)           -162.4588         estimate D2E/DX2                !
 ! D14   D(1,2,6,7)             82.4736         estimate D2E/DX2                !
 ! D15   D(1,2,6,22)           -42.7249         estimate D2E/DX2                !
 ! D16   D(3,2,6,5)            -43.1851         estimate D2E/DX2                !
 ! D17   D(3,2,6,7)           -158.2527         estimate D2E/DX2                !
 ! D18   D(3,2,6,22)            76.5488         estimate D2E/DX2                !
 ! D19   D(18,2,6,5)            72.6656         estimate D2E/DX2                !
 ! D20   D(18,2,6,7)           -42.402          estimate D2E/DX2                !
 ! D21   D(18,2,6,22)         -167.6005         estimate D2E/DX2                !
 ! D22   D(2,3,4,5)             17.4355         estimate D2E/DX2                !
 ! D23   D(2,3,4,9)            142.0962         estimate D2E/DX2                !
 ! D24   D(2,3,4,21)           -94.6719         estimate D2E/DX2                !
 ! D25   D(19,3,4,5)           132.4615         estimate D2E/DX2                !
 ! D26   D(19,3,4,9)          -102.8778         estimate D2E/DX2                !
 ! D27   D(19,3,4,21)           20.3541         estimate D2E/DX2                !
 ! D28   D(20,3,4,5)          -104.3673         estimate D2E/DX2                !
 ! D29   D(20,3,4,9)            20.2934         estimate D2E/DX2                !
 ! D30   D(20,3,4,21)          143.5254         estimate D2E/DX2                !
 ! D31   D(3,4,5,6)            -45.6481         estimate D2E/DX2                !
 ! D32   D(9,4,5,6)           -171.6191         estimate D2E/DX2                !
 ! D33   D(21,4,5,6)            68.5283         estimate D2E/DX2                !
 ! D34   D(3,4,9,10)           -76.1508         estimate D2E/DX2                !
 ! D35   D(3,4,9,13)           103.8433         estimate D2E/DX2                !
 ! D36   D(5,4,9,10)            44.7255         estimate D2E/DX2                !
 ! D37   D(5,4,9,13)          -135.2804         estimate D2E/DX2                !
 ! D38   D(21,4,9,10)          161.6808         estimate D2E/DX2                !
 ! D39   D(21,4,9,13)          -18.3252         estimate D2E/DX2                !
 ! D40   D(4,5,6,2)             55.0645         estimate D2E/DX2                !
 ! D41   D(4,5,6,7)            173.231          estimate D2E/DX2                !
 ! D42   D(4,5,6,22)           -61.4332         estimate D2E/DX2                !
 ! D43   D(2,6,7,8)            -69.3703         estimate D2E/DX2                !
 ! D44   D(2,6,7,23)           172.0385         estimate D2E/DX2                !
 ! D45   D(2,6,7,24)            53.4128         estimate D2E/DX2                !
 ! D46   D(5,6,7,8)           -179.9959         estimate D2E/DX2                !
 ! D47   D(5,6,7,23)            61.4129         estimate D2E/DX2                !
 ! D48   D(5,6,7,24)           -57.2128         estimate D2E/DX2                !
 ! D49   D(22,6,7,8)            53.9976         estimate D2E/DX2                !
 ! D50   D(22,6,7,23)          -64.5937         estimate D2E/DX2                !
 ! D51   D(22,6,7,24)          176.7807         estimate D2E/DX2                !
 ! D52   D(6,7,8,25)           -41.7719         estimate D2E/DX2                !
 ! D53   D(23,7,8,25)           76.4525         estimate D2E/DX2                !
 ! D54   D(24,7,8,25)         -164.9311         estimate D2E/DX2                !
 ! D55   D(4,9,10,11)         -179.9974         estimate D2E/DX2                !
 ! D56   D(4,9,10,12)           -0.005          estimate D2E/DX2                !
 ! D57   D(13,9,10,11)           0.0087         estimate D2E/DX2                !
 ! D58   D(13,9,10,12)        -179.999          estimate D2E/DX2                !
 ! D59   D(4,9,13,14)          179.9968         estimate D2E/DX2                !
 ! D60   D(4,9,13,27)            0.0044         estimate D2E/DX2                !
 ! D61   D(10,9,13,14)          -0.0093         estimate D2E/DX2                !
 ! D62   D(10,9,13,27)         179.9984         estimate D2E/DX2                !
 ! D63   D(9,10,11,15)          -0.0058         estimate D2E/DX2                !
 ! D64   D(9,10,11,26)         179.9991         estimate D2E/DX2                !
 ! D65   D(12,10,11,15)       -179.9982         estimate D2E/DX2                !
 ! D66   D(12,10,11,26)          0.0067         estimate D2E/DX2                !
 ! D67   D(10,11,15,14)          0.0038         estimate D2E/DX2                !
 ! D68   D(10,11,15,16)       -179.9975         estimate D2E/DX2                !
 ! D69   D(26,11,15,14)        179.9989         estimate D2E/DX2                !
 ! D70   D(26,11,15,16)         -0.0025         estimate D2E/DX2                !
 ! D71   D(9,13,14,15)           0.0071         estimate D2E/DX2                !
 ! D72   D(9,13,14,28)        -179.9991         estimate D2E/DX2                !
 ! D73   D(27,13,14,15)        179.9996         estimate D2E/DX2                !
 ! D74   D(27,13,14,28)         -0.0066         estimate D2E/DX2                !
 ! D75   D(13,14,15,11)         -0.0044         estimate D2E/DX2                !
 ! D76   D(13,14,15,16)        179.9969         estimate D2E/DX2                !
 ! D77   D(28,14,15,11)       -179.9983         estimate D2E/DX2                !
 ! D78   D(28,14,15,16)          0.0031         estimate D2E/DX2                !
 --------------------------------------------------------------------------------
 Trust Radius=3.00D-01 FncErr=1.00D-07 GrdErr=1.00D-07
 Number of steps in this run=    168 maximum allowed number of steps=    168.
 GradGradGradGradGradGradGradGradGradGradGradGradGradGradGradGradGradGrad

                          Input orientation:                          
 ---------------------------------------------------------------------
 Center     Atomic      Atomic             Coordinates (Angstroms)
 Number     Number       Type             X           Y           Z
 ---------------------------------------------------------------------
      1          8           0        2.884400    1.036300    1.053500
      2          6           0        1.907200    0.247300    0.749600
      3          6           0        0.587100    0.991300    0.716600
      4          6           0       -0.050900    0.461000   -0.535600
      5          8           0        0.650000   -0.725700   -0.846200
      6          6           0        1.968300   -0.284500   -0.669200
      7          6           0        2.881500   -1.472100   -0.796600
      8          8           0        4.207700   -1.152800   -0.639300
      9          7           0       -1.452500    0.260300   -0.448800
     10          6           0       -1.922100   -0.820700    0.227700
     11          7           0       -3.248400   -1.023500    0.318000
     12          8           0       -1.122600   -1.635900    0.771800
     13          6           0       -2.290800    1.136700   -1.033100
     14          6           0       -3.651800    0.927100   -0.939500
     15          6           0       -4.113600   -0.174600   -0.249600
     16          8           0       -5.368200   -0.343300   -0.178900
     17          1           0        3.115500    1.270300    1.851600
     18          1           0        1.844500   -0.603200    1.483800
     19          1           0        0.802400    2.067300    0.616400
     20          1           0       -0.016400    0.826200    1.624000
     21          1           0        0.182800    1.160500   -1.364100
     22          1           0        2.248300    0.527100   -1.341000
     23          1           0        2.750300   -1.876300   -1.821100
     24          1           0        2.600800   -2.247200   -0.061600
     25          1           0        4.480100   -0.319200   -1.085700
     26          1           0       -3.612400   -1.867900    0.846500
     27          1           0       -1.911600    2.013300   -1.581700
     28          1           0       -4.349300    1.622500   -1.404100
 ---------------------------------------------------------------------
                    Distance matrix (angstroms):
                    1          2          3          4          5
     1  O    0.000000
     2  C    1.292206   0.000000
     3  C    2.322308   1.515681   0.000000
     4  C    3.387063   2.351927   1.502088   0.000000
     5  O    3.421410   2.252523   2.322582   1.412795   0.000000
     6  C    2.356151   1.516423   2.335770   2.156569   1.401393
     7  C    3.116881   2.509249   3.690852   3.521927   2.353543
     8  O    3.067385   3.030119   4.420902   4.555302   3.589213
     9  N    4.654867   3.567060   2.460180   1.418555   2.355977
    10  C    5.218509   4.009556   3.133441   2.393067   2.788904
    11  N    6.511142   5.327422   4.350789   3.627172   4.079408
    12  O    4.824527   3.567439   3.135012   2.693478   2.566807
    13  C    5.580921   4.646747   3.371187   2.391909   3.485939
    14  C    6.834170   5.849587   4.551380   3.653336   4.609331
    15  C    7.220551   6.117715   4.938567   4.122052   4.832342
    16  O    8.457394   7.358150   6.168361   5.389602   6.067145
    17  H    0.863207   1.928969   2.785475   4.047194   4.164232
    18  H    1.988595   1.125314   2.170733   2.966992   2.621209
    19  H    2.364052   2.133243   1.101894   2.153004   3.156465
    20  H    2.963824   2.190876   1.102200   2.190533   2.992385
    21  H    3.627514   2.876668   2.126358   1.109202   2.011031
    22  H    2.529336   2.136644   2.684918   2.437080   2.090191
    23  H    4.094453   3.439330   4.398009   3.868101   2.585647
    24  H    3.479260   2.713237   3.892103   3.819756   2.595415
    25  H    2.993295   3.210773   4.485660   4.630473   3.859050
    26  H    7.119385   5.911806   5.082096   4.474177   4.726300
    27  H    5.558815   4.810088   3.545443   2.639349   3.821633
    28  H    7.662235   6.758209   5.409605   4.536476   5.551423
                    6          7          8          9         10
     6  C    0.000000
     7  C    1.503515   0.000000
     8  O    2.402031   1.373136   0.000000
     9  N    3.470916   4.680356   5.837037   0.000000
    10  C    4.028294   4.954602   6.199712   1.358947   0.000000
    11  N    5.360470   6.246539   7.518415   2.336960   1.344750
    12  O    3.668300   4.303432   5.535042   2.279095   1.264830
    13  C    4.504683   5.797798   6.901260   1.346191   2.357323
    14  C    5.755568   6.961364   8.135591   2.349964   2.721952
    15  C    6.097348   7.135414   8.387656   2.703751   2.334081
    16  O    7.353100   8.349449   9.621077   3.971132   3.502690
    17  H    3.176146   3.819486   3.642650   5.213306   5.690935
    18  H    2.179978   2.651524   3.224024   3.918008   3.976477
    19  H    2.922850   4.341265   4.851999   3.079687   3.989302
    20  H    3.229776   4.420329   5.184784   2.584400   2.879866
    21  H    2.399775   3.812561   4.698565   2.079024   3.299937
    22  H    1.090142   2.166590   2.674639   3.816166   4.655064
    23  H    2.114764   1.109140   2.010999   4.910376   5.209913
    24  H    2.149750   1.104444   2.028195   4.781916   4.751339
    25  H    2.546334   1.992054   0.984055   5.994765   6.554745
    26  H    5.995725   6.710229   7.992054   3.297303   2.082464
    27  H    4.600670   5.978144   6.954002   2.137111   3.362379
    28  H    6.639940   7.888604   9.028259   3.340604   3.810944
                   11         12         13         14         15
    11  N    0.000000
    12  O    2.258317   0.000000
    13  C    2.721936   3.508513   0.000000
    14  C    2.355606   3.986774   1.380222   0.000000
    15  C    1.338421   3.482059   2.378230   1.379480   0.000000
    16  O    2.281038   4.538696   3.520007   2.266817   1.267864
    17  H    6.936330   5.251044   6.129227   7.328327   7.665681
    18  H    5.241505   3.221350   5.144195   6.198670   6.219914
    19  H    5.104025   4.176537   3.626948   4.853945   5.472031
    20  H    3.946245   2.830523   3.511337   4.449477   4.615087
    21  H    4.401415   3.753131   2.495761   3.865090   4.635046
    22  H    5.947298   4.528295   4.590190   5.927258   6.492866
    23  H    6.425529   4.666934   5.925521   7.044370   7.244206
    24  H    5.987878   3.864188   6.026802   7.066958   7.029522
    25  H    7.886452   6.047665   6.925857   8.228149   8.635488
    26  H    1.060575   2.501701   3.782479   3.317133   2.078437
    27  H    3.823356   4.413405   1.101445   2.149546   3.377899
    28  H    3.343490   5.075757   2.147339   1.089009   2.148952
                   16         17         18         19         20
    16  O    0.000000
    17  H    8.871291   0.000000
    18  H    7.406427   2.293626   0.000000
    19  H    6.672316   2.740686   2.994983   0.000000
    20  H    5.767143   3.171407   2.350700   1.796113   0.000000
    21  H    5.871943   4.353563   3.739307   2.264635   3.013333
    22  H    7.753654   3.390734   3.069223   2.879975   3.742934
    23  H    8.423595   4.850071   3.655629   5.028688   5.179464
    24  H    8.194117   4.037085   2.379703   4.723223   4.374559
    25  H    9.889989   3.607821   3.691798   4.702978   5.373353
    26  H    2.541394   7.491539   5.637675   5.918547   4.560033
    27  H    4.412425   6.132808   5.509233   3.492901   3.908645
    28  H    2.530542   8.151495   7.187271   5.551602   5.345793
                   21         22         23         24         25
    21  H    0.000000
    22  H    2.160560   0.000000
    23  H    4.002881   2.501766   0.000000
    24  H    4.376717   3.075364   1.804372   0.000000
    25  H    4.553439   2.400486   2.440816   2.880579   0.000000
    26  H    5.334932   6.698432   6.899283   6.290657   8.462885
    27  H    2.271812   4.423968   6.076151   6.389391   6.822053
    28  H    4.555763   6.688214   7.925895   8.067266   9.045987
                   26         27         28
    26  H    0.000000
    27  H    4.883911   0.000000
    28  H    4.217951   2.475207   0.000000
 Stoichiometry    C9H12N2O5
 Framework group  C1[X(C9H12N2O5)]
 Deg. of freedom    78
 Full point group                 C1      NOp   1
 Largest Abelian subgroup         C1      NOp   1
 Largest concise Abelian subgroup C1      NOp   1
                         Standard orientation:                         
 ---------------------------------------------------------------------
 Center     Atomic      Atomic             Coordinates (Angstroms)
 Number     Number       Type             X           Y           Z
 ---------------------------------------------------------------------
      1          8           0        3.221333    1.376526    1.048050
      2          6           0        2.267460    0.537423    0.811773
      3          6           0        0.920216    1.230655    0.771114
      4          6           0        0.274010    0.609504   -0.434232
      5          8           0        1.011268   -0.566637   -0.697164
      6          6           0        2.315951   -0.069355   -0.577114
      7          6           0        3.269513   -1.228669   -0.662385
      8          8           0        4.586170   -0.853826   -0.555572
      9          7           0       -1.116823    0.363776   -0.301956
     10          6           0       -1.530401   -0.694373    0.443706
     11          7           0       -2.845849   -0.939303    0.577724
     12          8           0       -0.688978   -1.449102    1.011320
     13          6           0       -2.000200    1.175962   -0.912062
     14          6           0       -3.349986    0.923184   -0.773521
     15          6           0       -3.754698   -0.154600   -0.013551
     16          8           0       -5.000227   -0.364016    0.097272
     17          1           0        3.461694    1.662362    1.826286
     18          1           0        2.253144   -0.272951    1.592427
     19          1           0        1.093046    2.306509    0.607295
     20          1           0        0.344089    1.094365    1.700817
     21          1           0        0.462627    1.270130   -1.305050
     22          1           0        2.550228    0.713439   -1.298750
     23          1           0        3.130125   -1.693252   -1.659844
     24          1           0        3.034620   -1.971578    0.120372
     25          1           0        4.817169   -0.036910   -1.053217
     26          1           0       -3.166090   -1.765749    1.160179
     27          1           0       -1.666428    2.033973   -1.516707
     28          1           0       -4.083245    1.566419   -1.257795
 ---------------------------------------------------------------------
 Rotational constants (GHZ):      1.5653425      0.2632181      0.2524830
 Standard basis: 3-21G (6D, 7F)
 There are   168 symmetry adapted basis functions of A   symmetry.
 Integral buffers will be    131072 words long.
 Raffenetti 1 integral format.
 Two-electron integral symmetry is turned on.
   168 basis functions,   276 primitive gaussians,   168 cartesian basis functions
    60 alpha electrons       60 beta electrons
       nuclear repulsion energy      1179.9839700886 Hartrees.
 NAtoms=   28 NActive=   28 NUniq=   28 SFac= 1.00D+00 NAtFMM=   60 NAOKFM=F Big=F
 One-electron integrals computed using PRISM.
 NBasis=   168 RedAO= T  NBF=   168
 NBsUse=   168 1.00D-06 NBFU=   168
 Harris functional with IExCor=  205 diagonalized for initial guess.
 ExpMin= 1.83D-01 ExpMax= 3.22D+02 ExpMxC= 3.22D+02 IAcc=1 IRadAn=         1 AccDes= 0.00D+00
 HarFok:  IExCor=  205 AccDes= 0.00D+00 IRadAn=         1 IDoV= 1
 ScaDFX=  1.000000  1.000000  1.000000  1.000000
 FoFCou: FMM=F IPFlag=           0 FMFlag=      100000 FMFlg1=           0
         NFxFlg=           0 DoJE=T BraDBF=F KetDBF=T FulRan=T
         Omega=  0.000000  0.000000  1.000000  0.000000  0.000000 ICntrl=     500 IOpCl=  0
         NMat0=    1 NMatS0=    1 NMatT0=    0 NMatD0=    1 NMtDS0=    0 NMtDT0=    0
         I1Cent=           4 NGrid=           0.
 Petite list used in FoFCou.
 Initial guess orbital symmetries:
       Occupied  (A) (A) (A) (A) (A) (A) (A) (A) (A) (A) (A) (A)
                 (A) (A) (A) (A) (A) (A) (A) (A) (A) (A) (A) (A)
                 (A) (A) (A) (A) (A) (A) (A) (A) (A) (A) (A) (A)
                 (A) (A) (A) (A) (A) (A) (A) (A) (A) (A) (A) (A)
                 (A) (A) (A) (A) (A) (A) (A) (A) (A) (A) (A) (A)
       Virtual   (A) (A) (A) (A) (A) (A) (A) (A) (A) (A) (A) (A)
                 (A) (A) (A) (A) (A) (A) (A) (A) (A) (A) (A) (A)
                 (A) (A) (A) (A) (A) (A) (A) (A) (A) (A) (A) (A)
                 (A) (A) (A) (A) (A) (A) (A) (A) (A) (A) (A) (A)
                 (A) (A) (A) (A) (A) (A) (A) (A) (A) (A) (A) (A)
                 (A) (A) (A) (A) (A) (A) (A) (A) (A) (A) (A) (A)
                 (A) (A) (A) (A) (A) (A) (A) (A) (A) (A) (A) (A)
                 (A) (A) (A) (A) (A) (A) (A) (A) (A) (A) (A) (A)
                 (A) (A) (A) (A) (A) (A) (A) (A) (A) (A) (A) (A)
 The electronic state of the initial guess is 1-A.
 Requested convergence on RMS density matrix=1.00D-08 within 128 cycles.
 Requested convergence on MAX density matrix=1.00D-06.
 Requested convergence on             energy=1.00D-06.
 No special actions if energy rises.
 Integral accuracy reduced to 1.0D-05 until final iterations.
 Initial convergence to 1.0D-05 achieved.  Increase integral accuracy.
 SCF Done:  E(RHF) =  -826.300893674     A.U. after   16 cycles
             Convg  =    0.3453D-08             -V/T =  2.0010

 **********************************************************************

            Population analysis using the SCF density.

 **********************************************************************

 Orbital symmetries:
       Occupied  (A) (A) (A) (A) (A) (A) (A) (A) (A) (A) (A) (A)
                 (A) (A) (A) (A) (A) (A) (A) (A) (A) (A) (A) (A)
                 (A) (A) (A) (A) (A) (A) (A) (A) (A) (A) (A) (A)
                 (A) (A) (A) (A) (A) (A) (A) (A) (A) (A) (A) (A)
                 (A) (A) (A) (A) (A) (A) (A) (A) (A) (A) (A) (A)
       Virtual   (A) (A) (A) (A) (A) (A) (A) (A) (A) (A) (A) (A)
                 (A) (A) (A) (A) (A) (A) (A) (A) (A) (A) (A) (A)
                 (A) (A) (A) (A) (A) (A) (A) (A) (A) (A) (A) (A)
                 (A) (A) (A) (A) (A) (A) (A) (A) (A) (A) (A) (A)
                 (A) (A) (A) (A) (A) (A) (A) (A) (A) (A) (A) (A)
                 (A) (A) (A) (A) (A) (A) (A) (A) (A) (A) (A) (A)
                 (A) (A) (A) (A) (A) (A) (A) (A) (A) (A) (A) (A)
                 (A) (A) (A) (A) (A) (A) (A) (A) (A) (A) (A) (A)
                 (A) (A) (A) (A) (A) (A) (A) (A) (A) (A) (A) (A)
 The electronic state is 1-A.
 Alpha  occ. eigenvalues --  -20.48348 -20.44478 -20.44074 -20.42397 -20.41005
 Alpha  occ. eigenvalues --  -15.58707 -15.56553 -11.36516 -11.30816 -11.30277
 Alpha  occ. eigenvalues --  -11.29375 -11.24078 -11.23334 -11.22026 -11.19599
 Alpha  occ. eigenvalues --  -11.17797  -1.46315  -1.43906  -1.42278  -1.36719
 Alpha  occ. eigenvalues --   -1.36344  -1.32422  -1.26744  -1.10514  -1.08297
 Alpha  occ. eigenvalues --   -1.04395  -0.96246  -0.93673  -0.89729  -0.86180
 Alpha  occ. eigenvalues --   -0.84150  -0.79811  -0.77649  -0.76184  -0.72918
 Alpha  occ. eigenvalues --   -0.70722  -0.68480  -0.67865  -0.66539  -0.65206
 Alpha  occ. eigenvalues --   -0.63646  -0.62279  -0.61997  -0.58602  -0.58541
 Alpha  occ. eigenvalues --   -0.57479  -0.56220  -0.54990  -0.54678  -0.52568
 Alpha  occ. eigenvalues --   -0.50741  -0.48959  -0.46687  -0.45157  -0.44077
 Alpha  occ. eigenvalues --   -0.43185  -0.41443  -0.40074  -0.39863  -0.34119
 Alpha virt. eigenvalues --    0.09540   0.17432   0.20969   0.23413   0.24632
 Alpha virt. eigenvalues --    0.25565   0.26327   0.29760   0.30388   0.31370
 Alpha virt. eigenvalues --    0.32236   0.33075   0.33688   0.35352   0.35890
 Alpha virt. eigenvalues --    0.37922   0.38282   0.40711   0.43779   0.46079
 Alpha virt. eigenvalues --    0.47361   0.47708   0.48454   0.51355   0.52974
 Alpha virt. eigenvalues --    0.54934   0.57319   0.59843   0.62077   0.65900
 Alpha virt. eigenvalues --    0.67276   0.78333   0.86891   0.90935   0.92855
 Alpha virt. eigenvalues --    0.93224   0.95663   0.97624   0.98178   0.99201
 Alpha virt. eigenvalues --    0.99857   1.00897   1.01317   1.02256   1.03306
 Alpha virt. eigenvalues --    1.03855   1.04740   1.05931   1.06657   1.10746
 Alpha virt. eigenvalues --    1.10832   1.14444   1.15229   1.20336   1.21626
 Alpha virt. eigenvalues --    1.23736   1.25190   1.28031   1.29575   1.30822
 Alpha virt. eigenvalues --    1.32011   1.35346   1.35453   1.37063   1.37125
 Alpha virt. eigenvalues --    1.40395   1.41224   1.43612   1.46678   1.48764
 Alpha virt. eigenvalues --    1.54645   1.55743   1.59390   1.65154   1.70848
 Alpha virt. eigenvalues --    1.77467   1.78822   1.82255   1.89574   1.94871
 Alpha virt. eigenvalues --    1.94967   1.95828   1.98151   1.98969   2.00764
 Alpha virt. eigenvalues --    2.01284   2.01807   2.03242   2.05592   2.10713
 Alpha virt. eigenvalues --    2.14250   2.18244   2.18632   2.21069   2.23004
 Alpha virt. eigenvalues --    2.29948   2.33666   2.40886   2.45434   2.46682
 Alpha virt. eigenvalues --    3.09273   3.13126   3.24825   3.46656   3.69390
 Alpha virt. eigenvalues --    3.73872   3.78994   3.87139
          Condensed to atoms (all electrons):
              1          2          3          4          5          6
     1  O    8.445364   0.151659  -0.071899   0.003545   0.000587  -0.043188
     2  C    0.151659   5.292417   0.195724  -0.080305  -0.063196   0.127247
     3  C   -0.071899   0.195724   5.854379   0.146561  -0.068409  -0.137266
     4  C    0.003545  -0.080305   0.146561   5.051281   0.236572  -0.168336
     5  O    0.000587  -0.063196  -0.068409   0.236572   8.466071   0.162614
     6  C   -0.043188   0.127247  -0.137266  -0.168336   0.162614   5.749704
     7  C    0.002983  -0.076598   0.005336   0.005229  -0.021388   0.184068
     8  O   -0.000444   0.006644   0.000016  -0.000029   0.000343  -0.052304
     9  N   -0.000006   0.003481  -0.056832   0.142982  -0.028126   0.003168
    10  C    0.000000   0.000392  -0.003600  -0.058191   0.000637   0.000207
    11  N    0.000000   0.000001  -0.000030   0.000759  -0.000007   0.000000
    12  O    0.000000  -0.000351   0.000598   0.000193  -0.003906   0.000135
    13  C    0.000000  -0.000021   0.002012  -0.049629   0.000877  -0.000135
    14  C    0.000000   0.000001  -0.000146   0.002058  -0.000022   0.000000
    15  C    0.000000   0.000000   0.000011   0.000075   0.000002   0.000000
    16  O    0.000000   0.000000   0.000000   0.000000   0.000000   0.000000
    17  H    0.305526  -0.033737   0.000542  -0.000156  -0.000029   0.004733
    18  H   -0.046556   0.397337  -0.058443   0.005796   0.001688  -0.050782
    19  H    0.004288  -0.049890   0.362592  -0.037207   0.002288   0.001447
    20  H    0.002227  -0.033367   0.379161  -0.030510   0.001170   0.005770
    21  H    0.000060   0.001810  -0.074114   0.395632  -0.041623  -0.006459
    22  H    0.005892  -0.075418  -0.002467  -0.009533  -0.031313   0.364293
    23  H   -0.000056   0.006141  -0.000169  -0.000268   0.002749  -0.075250
    24  H    0.000043  -0.006193  -0.000100  -0.000208   0.003263  -0.051719
    25  H    0.001477  -0.000504   0.000022  -0.000009   0.000040  -0.006378
    26  H    0.000000   0.000000   0.000000  -0.000018   0.000001   0.000000
    27  H    0.000000   0.000001   0.000018  -0.001105   0.000030  -0.000010
    28  H    0.000000   0.000000   0.000001  -0.000044   0.000000   0.000000
              7          8          9         10         11         12
     1  O    0.002983  -0.000444  -0.000006   0.000000   0.000000   0.000000
     2  C   -0.076598   0.006644   0.003481   0.000392   0.000001  -0.000351
     3  C    0.005336   0.000016  -0.056832  -0.003600  -0.000030   0.000598
     4  C    0.005229  -0.000029   0.142982  -0.058191   0.000759   0.000193
     5  O   -0.021388   0.000343  -0.028126   0.000637  -0.000007  -0.003906
     6  C    0.184068  -0.052304   0.003168   0.000207   0.000000   0.000135
     7  C    5.020209   0.219194  -0.000045  -0.000012   0.000000  -0.000017
     8  O    0.219194   8.333995   0.000000   0.000000   0.000000   0.000000
     9  N   -0.000045   0.000000   8.086623   0.086011  -0.096681  -0.073470
    10  C   -0.000012   0.000000   0.086011   4.081142   0.138224   0.584012
    11  N    0.000000   0.000000  -0.096681   0.138224   7.941844  -0.075615
    12  O   -0.000017   0.000000  -0.073470   0.584012  -0.075615   8.197963
    13  C    0.000001   0.000000   0.184383  -0.058551   0.011477   0.000821
    14  C    0.000000   0.000000  -0.059369   0.012099  -0.140092   0.000019
    15  C    0.000000   0.000000  -0.001411  -0.048479   0.058464  -0.000070
    16  O    0.000000   0.000000   0.000013   0.000034  -0.071750  -0.000001
    17  H   -0.000209   0.000109   0.000000   0.000000   0.000000   0.000000
    18  H   -0.004085  -0.000102  -0.000155   0.000077   0.000001   0.000888
    19  H   -0.000078   0.000000   0.001660   0.000277   0.000001   0.000043
    20  H   -0.000096   0.000000  -0.005988   0.002146  -0.000119   0.001392
    21  H   -0.000132   0.000001  -0.040131   0.003142  -0.000016   0.000073
    22  H   -0.038071  -0.000210  -0.000242  -0.000019   0.000000  -0.000008
    23  H    0.382028  -0.044673  -0.000001   0.000001   0.000000   0.000000
    24  H    0.382400  -0.029879  -0.000001   0.000004   0.000000   0.000010
    25  H   -0.049904   0.272060   0.000000   0.000000   0.000000   0.000000
    26  H    0.000000   0.000000   0.002001  -0.019754   0.316499   0.000399
    27  H    0.000000   0.000000  -0.030353   0.000577  -0.000027  -0.000018
    28  H    0.000000   0.000000   0.001861   0.000117   0.001826   0.000000
             13         14         15         16         17         18
     1  O    0.000000   0.000000   0.000000   0.000000   0.305526  -0.046556
     2  C   -0.000021   0.000001   0.000000   0.000000  -0.033737   0.397337
     3  C    0.002012  -0.000146   0.000011   0.000000   0.000542  -0.058443
     4  C   -0.049629   0.002058   0.000075   0.000000  -0.000156   0.005796
     5  O    0.000877  -0.000022   0.000002   0.000000  -0.000029   0.001688
     6  C   -0.000135   0.000000   0.000000   0.000000   0.004733  -0.050782
     7  C    0.000001   0.000000   0.000000   0.000000  -0.000209  -0.004085
     8  O    0.000000   0.000000   0.000000   0.000000   0.000109  -0.000102
     9  N    0.184383  -0.059369  -0.001411   0.000013   0.000000  -0.000155
    10  C   -0.058551   0.012099  -0.048479   0.000034   0.000000   0.000077
    11  N    0.011477  -0.140092   0.058464  -0.071750   0.000000   0.000001
    12  O    0.000821   0.000019  -0.000070  -0.000001   0.000000   0.000888
    13  C    5.021024   0.367817  -0.087290   0.004485   0.000000  -0.000002
    14  C    0.367817   5.822349   0.160740  -0.099860   0.000000   0.000000
    15  C   -0.087290   0.160740   4.472586   0.573354   0.000000   0.000000
    16  O    0.004485  -0.099860   0.573354   8.237664   0.000000   0.000000
    17  H    0.000000   0.000000   0.000000   0.000000   0.320397  -0.003280
    18  H   -0.000002   0.000000   0.000000   0.000000  -0.003280   0.529647
    19  H    0.000004   0.000000  -0.000001   0.000000   0.000191   0.003670
    20  H    0.000103   0.000004   0.000008   0.000000   0.000109  -0.003160
    21  H   -0.002478   0.000356  -0.000011   0.000000   0.000003  -0.000024
    22  H   -0.000003   0.000000   0.000000   0.000000  -0.000172   0.003494
    23  H    0.000000   0.000000   0.000000   0.000000   0.000005   0.000012
    24  H    0.000000   0.000000   0.000000   0.000000  -0.000002   0.002848
    25  H    0.000000   0.000000   0.000000   0.000000  -0.000011   0.000065
    26  H   -0.000732   0.004296  -0.017866   0.000691   0.000000   0.000000
    27  H    0.374850  -0.023531   0.002083  -0.000011   0.000000   0.000000
    28  H   -0.034069   0.397903  -0.029302  -0.003881   0.000000   0.000000
             19         20         21         22         23         24
     1  O    0.004288   0.002227   0.000060   0.005892  -0.000056   0.000043
     2  C   -0.049890  -0.033367   0.001810  -0.075418   0.006141  -0.006193
     3  C    0.362592   0.379161  -0.074114  -0.002467  -0.000169  -0.000100
     4  C   -0.037207  -0.030510   0.395632  -0.009533  -0.000268  -0.000208
     5  O    0.002288   0.001170  -0.041623  -0.031313   0.002749   0.003263
     6  C    0.001447   0.005770  -0.006459   0.364293  -0.075250  -0.051719
     7  C   -0.000078  -0.000096  -0.000132  -0.038071   0.382028   0.382400
     8  O    0.000000   0.000000   0.000001  -0.000210  -0.044673  -0.029879
     9  N    0.001660  -0.005988  -0.040131  -0.000242  -0.000001  -0.000001
    10  C    0.000277   0.002146   0.003142  -0.000019   0.000001   0.000004
    11  N    0.000001  -0.000119  -0.000016   0.000000   0.000000   0.000000
    12  O    0.000043   0.001392   0.000073  -0.000008   0.000000   0.000010
    13  C    0.000004   0.000103  -0.002478  -0.000003   0.000000   0.000000
    14  C    0.000000   0.000004   0.000356   0.000000   0.000000   0.000000
    15  C   -0.000001   0.000008  -0.000011   0.000000   0.000000   0.000000
    16  O    0.000000   0.000000   0.000000   0.000000   0.000000   0.000000
    17  H    0.000191   0.000109   0.000003  -0.000172   0.000005  -0.000002
    18  H    0.003670  -0.003160  -0.000024   0.003494   0.000012   0.002848
    19  H    0.501119  -0.015889  -0.001713   0.001359   0.000001  -0.000001
    20  H   -0.015889   0.450225   0.002406   0.000045   0.000002   0.000003
    21  H   -0.001713   0.002406   0.518768   0.011656  -0.000024   0.000013
    22  H    0.001359   0.000045   0.011656   0.558480  -0.004726   0.003241
    23  H    0.000001   0.000002  -0.000024  -0.004726   0.576187  -0.031953
    24  H   -0.000001   0.000003   0.000013   0.003241  -0.031953   0.485760
    25  H   -0.000001   0.000000   0.000001   0.004067  -0.000744   0.004419
    26  H    0.000000   0.000004   0.000001   0.000000   0.000000   0.000000
    27  H   -0.000002   0.000009   0.000578  -0.000002   0.000000   0.000000
    28  H    0.000000   0.000000   0.000001   0.000000   0.000000   0.000000
             25         26         27         28
     1  O    0.001477   0.000000   0.000000   0.000000
     2  C   -0.000504   0.000000   0.000001   0.000000
     3  C    0.000022   0.000000   0.000018   0.000001
     4  C   -0.000009  -0.000018  -0.001105  -0.000044
     5  O    0.000040   0.000001   0.000030   0.000000
     6  C   -0.006378   0.000000  -0.000010   0.000000
     7  C   -0.049904   0.000000   0.000000   0.000000
     8  O    0.272060   0.000000   0.000000   0.000000
     9  N    0.000000   0.002001  -0.030353   0.001861
    10  C    0.000000  -0.019754   0.000577   0.000117
    11  N    0.000000   0.316499  -0.000027   0.001826
    12  O    0.000000   0.000399  -0.000018   0.000000
    13  C    0.000000  -0.000732   0.374850  -0.034069
    14  C    0.000000   0.004296  -0.023531   0.397903
    15  C    0.000000  -0.017866   0.002083  -0.029302
    16  O    0.000000   0.000691  -0.000011  -0.003881
    17  H   -0.000011   0.000000   0.000000   0.000000
    18  H    0.000065   0.000000   0.000000   0.000000
    19  H   -0.000001   0.000000  -0.000002   0.000000
    20  H    0.000000   0.000004   0.000009   0.000000
    21  H    0.000001   0.000001   0.000578   0.000001
    22  H    0.004067   0.000000  -0.000002   0.000000
    23  H   -0.000744   0.000000   0.000000   0.000000
    24  H    0.004419   0.000000   0.000000   0.000000
    25  H    0.394066   0.000000   0.000000   0.000000
    26  H    0.000000   0.286702   0.000003  -0.000012
    27  H    0.000000   0.000003   0.378515  -0.000854
    28  H    0.000000  -0.000012  -0.000854   0.380409
 Mulliken atomic charges:
              1
     1  O   -0.761501
     2  C    0.236726
     3  C   -0.473499
     4  C    0.444864
     5  O   -0.620915
     6  C   -0.011557
     7  C   -0.010812
     8  O   -0.704721
     9  N   -1.119372
    10  C    1.279505
    11  N   -1.084758
    12  O   -0.633089
    13  C    0.265057
    14  C   -0.444622
    15  C    0.917107
    16  O   -0.640737
    17  H    0.405983
    18  H    0.221068
    19  H    0.225840
    20  H    0.244347
    21  H    0.232226
    22  H    0.209658
    23  H    0.190739
    24  H    0.238050
    25  H    0.381333
    26  H    0.427785
    27  H    0.299248
    28  H    0.286046
 Sum of Mulliken atomic charges =   0.00000
 Mulliken charges with hydrogens summed into heavy atoms:
              1
     1  O   -0.355518
     2  C    0.457794
     3  C   -0.003311
     4  C    0.677090
     5  O   -0.620915
     6  C    0.198101
     7  C    0.417977
     8  O   -0.323387
     9  N   -1.119372
    10  C    1.279505
    11  N   -0.656973
    12  O   -0.633089
    13  C    0.564305
    14  C   -0.158576
    15  C    0.917107
    16  O   -0.640737
 Sum of Mulliken charges with hydrogens summed into heavy atoms =   0.00000
 Electronic spatial extent (au):  <R**2>=           4274.9340
 Charge=              0.0000 electrons
 Dipole moment (field-independent basis, Debye):
    X=              2.6546    Y=              5.5123    Z=             -0.8320  Tot=              6.1745
 Quadrupole moment (field-independent basis, Debye-Ang):
   XX=           -127.2765   YY=            -90.3614   ZZ=            -84.2383
   XY=              5.4846   XZ=              1.4494   YZ=             -2.1713
 Traceless Quadrupole moment (field-independent basis, Debye-Ang):
   XX=            -26.6511   YY=             10.2640   ZZ=             16.3871
   XY=              5.4846   XZ=              1.4494   YZ=             -2.1713
 Octapole moment (field-independent basis, Debye-Ang**2):
  XXX=            160.6197  YYY=             -1.0280  ZZZ=             16.2835  XYY=            -11.0756
  XXY=             44.9184  XXZ=             -2.8735  XZZ=             26.6937  YZZ=             12.6195
  YYZ=              0.5801  XYZ=             17.5977
 Hexadecapole moment (field-independent basis, Debye-Ang**3):
 XXXX=          -5748.6226 YYYY=           -562.4448 ZZZZ=           -359.7727 XXXY=            147.0806
 XXXZ=            -13.9094 YYYX=             38.6259 YYYZ=             -8.1389 ZZZX=             17.5476
 ZZZY=             14.5955 XXYY=           -782.3971 XXZZ=           -653.8412 YYZZ=           -134.9081
 XXYZ=            -37.4702 YYXZ=             23.3267 ZZXY=             38.9251
 N-N= 1.179983970089D+03 E-N=-4.300652591461D+03  KE= 8.254423143710D+02
 Calling FoFJK, ICntrl=      2127 FMM=F ISym2X=0 I1Cent= 0 IOpClX= 0 NMat=1 NMatS=1 NMatT=0.
 ***** Axes restored to original set *****
 -------------------------------------------------------------------
 Center     Atomic                   Forces (Hartrees/Bohr)
 Number     Number              X              Y              Z
 -------------------------------------------------------------------
      1        8           0.081454309    0.047064855   -0.127367177
      2        6          -0.072126281   -0.068762533    0.026868301
      3        6          -0.017774244    0.023702940    0.029596779
      4        6          -0.004030056    0.016604488   -0.018117785
      5        8          -0.010887148   -0.001192753   -0.025394549
      6        6           0.041306238   -0.020848877    0.020783262
      7        6          -0.035287160   -0.028739102   -0.037972333
      8        8           0.056385633    0.026312892    0.013090295
      9        7          -0.003714245    0.003300716   -0.011661183
     10        6           0.075862099   -0.089755860    0.057615135
     11        7          -0.006476524   -0.024520545    0.015870618
     12        8          -0.043466057    0.044913583   -0.020071272
     13        6          -0.078043114    0.020756702   -0.017632155
     14        6           0.080661668    0.065039097   -0.037918763
     15        6          -0.145431365   -0.020200153    0.007908697
     16        8           0.056418642   -0.006853930    0.006220774
     17        1           0.027715437    0.027220465    0.134467839
     18        1          -0.006378250    0.009592944   -0.024708542
     19        1          -0.002418616   -0.013450151    0.002329074
     20        1           0.005395552    0.000851623   -0.015049352
     21        1          -0.015849087   -0.006320657    0.012084978
     22        1          -0.000872597   -0.002148564   -0.000258801
     23        1          -0.007728184   -0.002092525    0.015029934
     24        1           0.004291342    0.013650761   -0.012267810
     25        1          -0.008556063   -0.016548928    0.008313547
     26        1           0.019969384    0.039223651   -0.024978530
     27        1           0.000407728   -0.021659286    0.013217380
     28        1           0.009170960   -0.015140852    0.010001640
 -------------------------------------------------------------------
 Cartesian Forces:  Max     0.145431365 RMS     0.041012418

 GradGradGradGradGradGradGradGradGradGradGradGradGradGradGradGradGradGrad
 Berny optimization.
 Internal  Forces:  Max     0.139124647 RMS     0.021970779
 Search for a local minimum.
 Step number   1 out of a maximum of  168
 All quantities printed in internal units (Hartrees-Bohrs-Radians)
 Mixed Optimization -- RFO/linear search
 Second derivative matrix not updated -- first step.
 ITU=  0
     Eigenvalues ---    0.00708   0.00719   0.01446   0.01545   0.01982
     Eigenvalues ---    0.02047   0.02303   0.02335   0.02355   0.02374
     Eigenvalues ---    0.02380   0.02431   0.02446   0.02469   0.03118
     Eigenvalues ---    0.03321   0.04019   0.04421   0.05109   0.05153
     Eigenvalues ---    0.05255   0.05749   0.05826   0.06073   0.06208
     Eigenvalues ---    0.06303   0.06839   0.08213   0.08326   0.08819
     Eigenvalues ---    0.11809   0.11828   0.14073   0.14543   0.16000
     Eigenvalues ---    0.16000   0.16000   0.16000   0.16000   0.16319
     Eigenvalues ---    0.18817   0.20341   0.22142   0.22391   0.23484
     Eigenvalues ---    0.24617   0.25000   0.25000   0.25000   0.28262
     Eigenvalues ---    0.29371   0.31031   0.31365   0.32011   0.32685
     Eigenvalues ---    0.32691   0.33195   0.33440   0.33474   0.33523
     Eigenvalues ---    0.34796   0.34927   0.38447   0.40410   0.41985
     Eigenvalues ---    0.42679   0.45624   0.47254   0.50379   0.50605
     Eigenvalues ---    0.51596   0.52926   0.55511   0.56956   0.69405
     Eigenvalues ---    0.76971   0.77989   0.82834
 RFO step:  Lambda=-1.24310669D-01 EMin= 7.08099766D-03
 Linear search not attempted -- first point.
 Maximum step size (   0.300) exceeded in Quadratic search.
    -- Step size scaled by   0.655
 Iteration  1 RMS(Cart)=  0.05510221 RMS(Int)=  0.00076410
 Iteration  2 RMS(Cart)=  0.00113243 RMS(Int)=  0.00015421
 Iteration  3 RMS(Cart)=  0.00000109 RMS(Int)=  0.00015421
 Iteration  4 RMS(Cart)=  0.00000000 RMS(Int)=  0.00015421
 Variable       Old X    -DE/DX   Delta X   Delta X   Delta X     New X
                                 (Linear)    (Quad)   (Total)
    R1        2.44192   0.12958   0.00000   0.10371   0.10371   2.54563
    R2        1.63123   0.13912   0.00000   0.09565   0.09565   1.72688
    R3        2.86422   0.03933   0.00000   0.05880   0.05887   2.92309
    R4        2.86562   0.01383   0.00000   0.02055   0.02043   2.88605
    R5        2.12653  -0.02302   0.00000  -0.03469  -0.03469   2.09185
    R6        2.83853   0.02953   0.00000   0.04294   0.04305   2.88158
    R7        2.08228  -0.01382   0.00000  -0.01972  -0.01972   2.06256
    R8        2.08286  -0.01547   0.00000  -0.02209  -0.02209   2.06077
    R9        2.66980   0.02496   0.00000   0.02913   0.02906   2.69886
   R10        2.68068   0.03483   0.00000   0.04140   0.04140   2.72208
   R11        2.09609  -0.01635   0.00000  -0.02374  -0.02374   2.07235
   R12        2.64825   0.03538   0.00000   0.04150   0.04152   2.68977
   R13        2.84123   0.01256   0.00000   0.01851   0.01851   2.85974
   R14        2.06007  -0.00166   0.00000  -0.00231  -0.00231   2.05776
   R15        2.59485   0.05092   0.00000   0.05310   0.05310   2.64795
   R16        2.09597  -0.01221   0.00000  -0.01772  -0.01772   2.07825
   R17        2.08710  -0.01883   0.00000  -0.02704  -0.02704   2.06006
   R18        1.85959  -0.02016   0.00000  -0.02095  -0.02095   1.83865
   R19        2.56804   0.02689   0.00000   0.02718   0.02723   2.59527
   R20        2.54393   0.03482   0.00000   0.03224   0.03216   2.57609
   R21        2.54121   0.02437   0.00000   0.02478   0.02491   2.56612
   R22        2.39018  -0.06506   0.00000  -0.04713  -0.04713   2.34306
   R23        2.52925   0.03600   0.00000   0.03486   0.03494   2.56419
   R24        2.00420  -0.05053   0.00000  -0.06505  -0.06505   1.93915
   R25        2.60824  -0.04570   0.00000  -0.05035  -0.05048   2.55776
   R26        2.08143  -0.02368   0.00000  -0.03375  -0.03375   2.04768
   R27        2.60684   0.05436   0.00000   0.05745   0.05739   2.66423
   R28        2.05793  -0.01981   0.00000  -0.02740  -0.02740   2.03053
   R29        2.39592  -0.05457   0.00000  -0.03998  -0.03998   2.35594
    A1        2.19619  -0.02463   0.00000  -0.05675  -0.05675   2.13944
    A2        1.94341   0.01382   0.00000   0.03716   0.03734   1.98075
    A3        1.98635  -0.01241   0.00000  -0.02705  -0.02722   1.95913
    A4        1.92855   0.00734   0.00000   0.02181   0.02138   1.94993
    A5        1.75877   0.00638   0.00000   0.01257   0.01233   1.77110
    A6        1.91417  -0.00989   0.00000  -0.02230  -0.02231   1.89187
    A7        1.92584  -0.00579   0.00000  -0.02422  -0.02426   1.90158
    A8        1.78727   0.00611   0.00000   0.01368   0.01348   1.80076
    A9        1.88718   0.00094   0.00000   0.00424   0.00423   1.89142
   A10        1.96648  -0.00318   0.00000  -0.00675  -0.00662   1.95985
   A11        1.93043  -0.00094   0.00000  -0.00028  -0.00037   1.93005
   A12        1.98325  -0.00396   0.00000  -0.01179  -0.01167   1.97158
   A13        1.90511   0.00133   0.00000   0.00197   0.00194   1.90704
   A14        1.84325  -0.01205   0.00000  -0.01943  -0.01979   1.82347
   A15        2.00271   0.01193   0.00000   0.02321   0.02330   2.02601
   A16        1.88656   0.00191   0.00000   0.00685   0.00698   1.89354
   A17        1.96578   0.00640   0.00000   0.01387   0.01400   1.97978
   A18        1.83483   0.00123   0.00000   0.00036   0.00050   1.83532
   A19        1.92101  -0.01024   0.00000  -0.02620  -0.02624   1.89477
   A20        1.74617   0.02120   0.00000   0.05081   0.05073   1.79690
   A21        1.76265  -0.00522   0.00000  -0.00311  -0.00366   1.75899
   A22        1.96141   0.01201   0.00000   0.02862   0.02893   1.99034
   A23        1.90269  -0.00457   0.00000  -0.01547  -0.01562   1.88708
   A24        1.88808   0.00366   0.00000   0.00725   0.00710   1.89518
   A25        1.98032  -0.00170   0.00000  -0.00862  -0.00854   1.97178
   A26        1.96042  -0.00378   0.00000  -0.00715  -0.00708   1.95333
   A27        1.97494  -0.00242   0.00000  -0.00348  -0.00364   1.97130
   A28        1.86949   0.00060   0.00000   0.00461   0.00448   1.87397
   A29        1.92152  -0.00219   0.00000  -0.01072  -0.01084   1.91069
   A30        1.88053   0.00998   0.00000   0.03229   0.03223   1.91276
   A31        1.90967  -0.00273   0.00000  -0.01175  -0.01186   1.89781
   A32        1.90592  -0.00296   0.00000  -0.00995  -0.00990   1.89603
   A33        1.99585  -0.00581   0.00000  -0.01339  -0.01339   1.98246
   A34        2.07652   0.00707   0.00000   0.01383   0.01383   2.09034
   A35        2.09049  -0.00552   0.00000  -0.00820  -0.00819   2.08229
   A36        2.11618  -0.00155   0.00000  -0.00563  -0.00565   2.11053
   A37        2.08772  -0.02637   0.00000  -0.04418  -0.04404   2.04368
   A38        2.10413   0.01648   0.00000   0.02786   0.02772   2.13185
   A39        2.09133   0.00989   0.00000   0.01632   0.01618   2.10751
   A40        2.10998   0.02916   0.00000   0.05926   0.05947   2.16945
   A41        2.08522  -0.01737   0.00000  -0.03606  -0.03617   2.04905
   A42        2.08799  -0.01179   0.00000  -0.02320  -0.02331   2.06468
   A43        2.07802   0.02306   0.00000   0.03708   0.03688   2.11490
   A44        2.11755  -0.02101   0.00000  -0.04038  -0.04028   2.07728
   A45        2.08761  -0.00205   0.00000   0.00329   0.00339   2.09101
   A46        2.07750   0.00528   0.00000   0.00496   0.00478   2.08228
   A47        2.10095   0.00207   0.00000   0.00838   0.00847   2.10942
   A48        2.10473  -0.00735   0.00000  -0.01334  -0.01325   2.09149
   A49        2.09697  -0.02959   0.00000  -0.05149  -0.05146   2.04550
   A50        2.13132  -0.00564   0.00000  -0.01000  -0.01002   2.12130
   A51        2.05490   0.03522   0.00000   0.06150   0.06148   2.11638
    D1        1.44748  -0.00127   0.00000   0.00129   0.00203   1.44952
    D2       -2.86235   0.00805   0.00000   0.02447   0.02433  -2.83803
    D3       -0.68431  -0.00328   0.00000  -0.01102  -0.01162  -0.69593
    D4        2.37410  -0.00466   0.00000  -0.01308  -0.01293   2.36116
    D5        0.33524  -0.00691   0.00000  -0.02104  -0.02086   0.31438
    D6       -1.77181  -0.00722   0.00000  -0.02216  -0.02198  -1.79379
    D7        0.26164  -0.00014   0.00000  -0.00568  -0.00588   0.25575
    D8       -1.77722  -0.00239   0.00000  -0.01364  -0.01380  -1.79103
    D9        2.39892  -0.00270   0.00000  -0.01475  -0.01492   2.38399
   D10       -1.76901   0.00711   0.00000   0.02420   0.02407  -1.74494
   D11        2.47532   0.00486   0.00000   0.01624   0.01615   2.49146
   D12        0.36827   0.00456   0.00000   0.01512   0.01503   0.38329
   D13       -2.83544   0.00068   0.00000   0.00464   0.00483  -2.83061
   D14        1.43944  -0.00559   0.00000  -0.01369  -0.01348   1.42596
   D15       -0.74569  -0.00583   0.00000  -0.01326  -0.01301  -0.75870
   D16       -0.75372   0.01523   0.00000   0.04390   0.04366  -0.71006
   D17       -2.76203   0.00896   0.00000   0.02557   0.02535  -2.73668
   D18        1.33603   0.00872   0.00000   0.02600   0.02582   1.36185
   D19        1.26825   0.00495   0.00000   0.01544   0.01515   1.28340
   D20       -0.74005  -0.00132   0.00000  -0.00289  -0.00316  -0.74322
   D21       -2.92518  -0.00156   0.00000  -0.00246  -0.00269  -2.92787
   D22        0.30431  -0.00768   0.00000  -0.02313  -0.02305   0.28126
   D23        2.48005  -0.00070   0.00000  -0.00469  -0.00475   2.47529
   D24       -1.65234  -0.00430   0.00000  -0.01747  -0.01737  -1.66970
   D25        2.31189  -0.00383   0.00000  -0.01131  -0.01128   2.30061
   D26       -1.79556   0.00316   0.00000   0.00713   0.00702  -1.78854
   D27        0.35525  -0.00044   0.00000  -0.00564  -0.00560   0.34965
   D28       -1.82155  -0.00571   0.00000  -0.01759  -0.01752  -1.83907
   D29        0.35419   0.00127   0.00000   0.00084   0.00078   0.35497
   D30        2.50499  -0.00233   0.00000  -0.01193  -0.01184   2.49315
   D31       -0.79671   0.01153   0.00000   0.03691   0.03681  -0.75990
   D32       -2.99532   0.00098   0.00000   0.01257   0.01260  -2.98271
   D33        1.19604   0.00912   0.00000   0.03654   0.03655   1.23260
   D34       -1.32908   0.00809   0.00000   0.03086   0.03078  -1.29830
   D35        1.81241   0.00694   0.00000   0.02563   0.02551   1.83792
   D36        0.78061   0.00608   0.00000   0.03343   0.03349   0.81410
   D37       -2.36109   0.00492   0.00000   0.02821   0.02822  -2.33287
   D38        2.82186   0.00490   0.00000   0.02539   0.02548   2.84734
   D39       -0.31983   0.00375   0.00000   0.02016   0.02021  -0.29962
   D40        0.96106  -0.00900   0.00000  -0.03536  -0.03584   0.92522
   D41        3.02345   0.00346   0.00000  -0.00178  -0.00208   3.02137
   D42       -1.07221   0.00013   0.00000  -0.01166  -0.01193  -1.08414
   D43       -1.21074   0.00779   0.00000   0.03432   0.03429  -1.17645
   D44        3.00264  -0.00351   0.00000  -0.00653  -0.00654   2.99610
   D45        0.93223   0.00089   0.00000   0.00860   0.00862   0.94085
   D46       -3.14152   0.00589   0.00000   0.01946   0.01947  -3.12206
   D47        1.07186  -0.00541   0.00000  -0.02138  -0.02136   1.05049
   D48       -0.99855  -0.00101   0.00000  -0.00626  -0.00621  -1.00476
   D49        0.94244   0.00802   0.00000   0.03022   0.03018   0.97261
   D50       -1.12737  -0.00328   0.00000  -0.01063  -0.01065  -1.13803
   D51        3.08540   0.00112   0.00000   0.00450   0.00450   3.08991
   D52       -0.72906  -0.00400   0.00000  -0.01600  -0.01604  -0.74510
   D53        1.33435   0.00187   0.00000   0.00887   0.00900   1.34335
   D54       -2.87859   0.00255   0.00000   0.00902   0.00892  -2.86967
   D55       -3.14155   0.00005   0.00000   0.00021   0.00010  -3.14145
   D56       -0.00009   0.00416   0.00000   0.01841   0.01841   0.01832
   D57        0.00015   0.00122   0.00000   0.00551   0.00545   0.00561
   D58       -3.14158   0.00533   0.00000   0.02372   0.02376  -3.11781
   D59        3.14154  -0.00008   0.00000  -0.00031  -0.00037   3.14117
   D60        0.00008   0.00067   0.00000   0.00303   0.00291   0.00299
   D61       -0.00016  -0.00126   0.00000  -0.00566  -0.00570  -0.00586
   D62        3.14156  -0.00051   0.00000  -0.00232  -0.00242   3.13915
   D63       -0.00010  -0.00016   0.00000  -0.00073  -0.00074  -0.00084
   D64        3.14158   0.00060   0.00000   0.00262   0.00259  -3.13902
   D65       -3.14156  -0.00424   0.00000  -0.01881  -0.01878   3.12285
   D66        0.00012  -0.00348   0.00000  -0.01546  -0.01545  -0.01533
   D67        0.00007  -0.00083   0.00000  -0.00370  -0.00364  -0.00358
   D68       -3.14155   0.00023   0.00000   0.00101   0.00092  -3.14063
   D69        3.14157  -0.00159   0.00000  -0.00706  -0.00700   3.13458
   D70       -0.00004  -0.00053   0.00000  -0.00235  -0.00243  -0.00247
   D71        0.00012   0.00026   0.00000   0.00117   0.00107   0.00120
   D72       -3.14158   0.00043   0.00000   0.00191   0.00185  -3.13973
   D73        3.14159  -0.00048   0.00000  -0.00212  -0.00224   3.13934
   D74       -0.00011  -0.00031   0.00000  -0.00138  -0.00147  -0.00158
   D75       -0.00008   0.00078   0.00000   0.00347   0.00344   0.00336
   D76        3.14154  -0.00023   0.00000  -0.00104  -0.00111   3.14042
   D77       -3.14156   0.00061   0.00000   0.00273   0.00267  -3.13889
   D78        0.00005  -0.00040   0.00000  -0.00178  -0.00188  -0.00183
         Item               Value     Threshold  Converged?
 Maximum Force            0.139125     0.000450     NO 
 RMS     Force            0.021971     0.000300     NO 
 Maximum Displacement     0.225347     0.001800     NO 
 RMS     Displacement     0.054936     0.001200     NO 
 Predicted change in Energy=-6.174809D-02
 GradGradGradGradGradGradGradGradGradGradGradGradGradGradGradGradGradGrad

                          Input orientation:                          
 ---------------------------------------------------------------------
 Center     Atomic      Atomic             Coordinates (Angstroms)
 Number     Number       Type             X           Y           Z
 ---------------------------------------------------------------------
      1          8           0        3.000039    1.064424    1.040929
      2          6           0        1.955070    0.264207    0.753977
      3          6           0        0.597001    1.004586    0.740648
      4          6           0       -0.076024    0.473529   -0.520399
      5          8           0        0.669818   -0.696901   -0.857283
      6          6           0        2.018173   -0.280547   -0.671399
      7          6           0        2.921149   -1.484289   -0.831867
      8          8           0        4.275702   -1.180397   -0.641366
      9          7           0       -1.495092    0.242680   -0.431618
     10          6           0       -1.967017   -0.843588    0.263664
     11          7           0       -3.313933   -1.009162    0.312414
     12          8           0       -1.209491   -1.635885    0.843107
     13          6           0       -2.351921    1.113452   -1.036549
     14          6           0       -3.692007    0.932673   -0.977565
     15          6           0       -4.208586   -0.175894   -0.276207
     16          8           0       -5.436495   -0.376767   -0.197661
     17          1           0        3.234749    1.279113    1.897606
     18          1           0        1.883122   -0.584897    1.460522
     19          1           0        0.789729    2.075146    0.650965
     20          1           0        0.015349    0.818143    1.644048
     21          1           0        0.112394    1.178959   -1.338621
     22          1           0        2.306307    0.534811   -1.333154
     23          1           0        2.770263   -1.874678   -1.848877
     24          1           0        2.631046   -2.254150   -0.116638
     25          1           0        4.551521   -0.349084   -1.065057
     26          1           0       -3.671798   -1.818029    0.832659
     27          1           0       -1.946037    1.961562   -1.575180
     28          1           0       -4.362728    1.621281   -1.457696
 ---------------------------------------------------------------------
                    Distance matrix (angstroms):
                    1          2          3          4          5
     1  O    0.000000
     2  C    1.347089   0.000000
     3  C    2.422466   1.546832   0.000000
     4  C    3.499866   2.406905   1.524868   0.000000
     5  O    3.483590   2.274150   2.335325   1.428173   0.000000
     6  C    2.388530   1.527233   2.380163   2.230940   1.423364
     7  C    3.163783   2.550578   3.750862   3.593481   2.385186
     8  O    3.081664   3.069072   4.496327   4.656997   3.644556
     9  N    4.801027   3.648248   2.516259   1.440462   2.398091
    10  C    5.377387   4.104921   3.196474   2.434216   2.868961
    11  N    6.685562   5.438643   4.419725   3.657323   4.163649
    12  O    5.005092   3.692254   3.200937   2.755635   2.702743
    13  C    5.741237   4.741031   3.444767   2.419839   3.527099
    14  C    6.991076   5.944288   4.620932   3.673574   4.657843
    15  C    7.432194   6.264632   5.051850   4.190400   4.940438
    16  O    8.647904   7.480087   6.260322   5.437078   6.150175
    17  H    0.913825   1.993865   2.893377   4.178149   4.251225
    18  H    2.035637   1.106959   2.167667   2.980363   2.618562
    19  H    2.461524   2.155952   1.091460   2.164901   3.158075
    20  H    3.054960   2.204900   1.090510   2.193613   2.996722
    21  H    3.743510   2.934483   2.142103   1.096639   2.015257
    22  H    2.529431   2.133708   2.728199   2.517900   2.102775
    23  H    4.128207   3.466154   4.440593   3.921769   2.604282
    24  H    3.533985   2.749007   3.935942   3.864128   2.611511
    25  H    2.973260   3.229020   4.553155   4.731544   3.902789
    26  H    7.270854   6.000294   5.118424   4.473433   4.791916
    27  H    5.666794   4.850219   3.570140   2.612232   3.798092
    28  H    7.795098   6.829913   5.460031   4.535603   5.573239
                    6          7          8          9         10
     6  C    0.000000
     7  C    1.513310   0.000000
     8  O    2.430446   1.401233   0.000000
     9  N    3.560098   4.758761   5.947370   0.000000
    10  C    4.131961   5.050232   6.316966   1.373356   0.000000
    11  N    5.470843   6.356994   7.651247   2.329994   1.357931
    12  O    3.814248   4.459899   5.700743   2.288121   1.239893
    13  C    4.601554   5.881787   7.024479   1.363210   2.380905
    14  C    5.845665   7.042496   8.249998   2.366555   2.769718
    15  C    6.240165   7.270060   8.551345   2.749983   2.400397
    16  O    7.470326   8.454527   9.755484   3.996637   3.531009
    17  H    3.242281   3.896762   3.684990   5.373162   5.850982
    18  H    2.157767   2.672350   3.239907   3.959470   4.040168
    19  H    2.967661   4.405827   4.941729   3.122551   4.033442
    20  H    3.252648   4.458140   5.231433   2.630775   2.931993
    21  H    2.491453   3.903690   4.835893   2.069609   3.313903
    22  H    1.088921   2.169350   2.701671   3.917747   4.765617
    23  H    2.119751   1.099764   2.050964   4.968408   5.288458
    24  H    2.139738   1.090136   2.033022   4.833052   4.824572
    25  H    2.564666   2.000295   0.972971   6.108433   6.670934
    26  H    6.082911   6.808008   8.108149   3.253147   2.044400
    27  H    4.643150   6.009650   7.032350   2.113206   3.354199
    28  H    6.704560   7.942990   9.118019   3.343159   3.844228
                   11         12         13         14         15
    11  N    0.000000
    12  O    2.259003   0.000000
    13  C    2.692704   3.520953   0.000000
    14  C    2.361717   4.009391   1.353510   0.000000
    15  C    1.356913   3.518381   2.384898   1.409850   0.000000
    16  O    2.272745   4.531682   3.526908   2.316489   1.246708
    17  H    7.115776   5.418528   6.312495   7.507767   7.889597
    18  H    5.339245   3.324159   5.201475   6.271311   6.347631
    19  H    5.144669   4.219662   3.693579   4.903398   5.559675
    20  H    4.024477   2.857270   3.588423   4.542076   4.745220
    21  H    4.387881   3.798771   2.483624   3.829423   4.651367
    22  H    6.056306   4.669996   4.703391   6.022002   6.638228
    23  H    6.514425   4.810638   5.985446   7.099389   7.352788
    24  H    6.089077   4.006630   6.084155   7.132884   7.150187
    25  H    8.012396   6.203725   7.056723   8.343039   8.797258
    26  H    1.026153   2.469056   3.718816   3.292975   2.052885
    27  H    3.776155   4.396844   1.083585   2.112858   3.372710
    28  H    3.339534   5.083869   2.116270   1.074511   2.156273
                   16         17         18         19         20
    16  O    0.000000
    17  H    9.073178   0.000000
    18  H    7.507975   2.343602   0.000000
    19  H    6.745214   2.857604   2.987761   0.000000
    20  H    5.877270   3.262104   2.343241   1.779308   0.000000
    21  H    5.874712   4.498032   3.752581   2.284816   3.005980
    22  H    7.878534   3.442934   3.039318   2.934172   3.767293
    23  H    8.504183   4.919175   3.660967   5.076695   5.200131
    24  H    8.283499   4.111640   2.415208   4.766809   4.402371
    25  H   10.025647   3.627987   3.681645   4.792984   5.410963
    26  H    2.500591   7.643742   5.724680   5.924108   4.604650
    27  H    4.421385   6.274274   5.510208   3.528887   3.939273
    28  H    2.594776   8.312448   7.238360   5.585720   5.425256
                   21         22         23         24         25
    21  H    0.000000
    22  H    2.286528   0.000000
    23  H    4.080358   2.507361   0.000000
    24  H    4.429795   3.060011   1.778773   0.000000
    25  H    4.702723   2.427783   2.472790   2.866531   0.000000
    26  H    5.293061   6.779700   6.978108   6.388834   8.566335
    27  H    2.214851   4.491840   6.085649   6.391342   6.915024
    28  H    4.498504   6.758103   7.953258   8.107421   9.137852
                   26         27         28
    26  H    0.000000
    27  H    4.802213   0.000000
    28  H    4.189507   2.443356   0.000000
 Stoichiometry    C9H12N2O5
 Framework group  C1[X(C9H12N2O5)]
 Deg. of freedom    78
 Full point group                 C1      NOp   1
 Largest Abelian subgroup         C1      NOp   1
 Largest concise Abelian subgroup C1      NOp   1
                         Standard orientation:                         
 ---------------------------------------------------------------------
 Center     Atomic      Atomic             Coordinates (Angstroms)
 Number     Number       Type             X           Y           Z
 ---------------------------------------------------------------------
      1          8           0        3.349977    1.401410    1.017462
      2          6           0        2.325163    0.552705    0.807454
      3          6           0        0.943776    1.248297    0.782737
      4          6           0        0.258991    0.618369   -0.425353
      5          8           0        1.034425   -0.547230   -0.707769
      6          6           0        2.372504   -0.078387   -0.582482
      7          6           0        3.310168   -1.261247   -0.690810
      8          8           0        4.658209   -0.904107   -0.554090
      9          7           0       -1.149337    0.349653   -0.286316
     10          6           0       -1.569211   -0.704856    0.486874
     11          7           0       -2.908509   -0.908737    0.580080
     12          8           0       -0.772910   -1.435267    1.094937
     13          6           0       -2.048014    1.153662   -0.922155
     14          6           0       -3.379752    0.935469   -0.817967
     15          6           0       -3.843375   -0.142287   -0.036193
     16          8           0       -5.061914   -0.375816    0.085905
     17          1           0        3.597610    1.676725    1.852899
     18          1           0        2.297490   -0.252110    1.566971
     19          1           0        1.099399    2.316560    0.621862
     20          1           0        0.389858    1.101081    1.710484
     21          1           0        0.405097    1.276453   -1.290337
     22          1           0        2.618338    0.702287   -1.300717
     23          1           0        3.148248   -1.719310   -1.677441
     24          1           0        3.062139   -1.993235    0.078003
     25          1           0        4.896805   -0.092928   -1.035476
     26          1           0       -3.227550   -1.693999    1.158497
     27          1           0       -1.682700    1.978403   -1.522576
     28          1           0       -4.083612    1.571384   -1.322712
 ---------------------------------------------------------------------
 Rotational constants (GHZ):      1.5346191      0.2533924      0.2436747
 Standard basis: 3-21G (6D, 7F)
 There are   168 symmetry adapted basis functions of A   symmetry.
 Integral buffers will be    131072 words long.
 Raffenetti 1 integral format.
 Two-electron integral symmetry is turned on.
   168 basis functions,   276 primitive gaussians,   168 cartesian basis functions
    60 alpha electrons       60 beta electrons
       nuclear repulsion energy      1164.5943626889 Hartrees.
 NAtoms=   28 NActive=   28 NUniq=   28 SFac= 1.00D+00 NAtFMM=   60 NAOKFM=F Big=F
 One-electron integrals computed using PRISM.
 NBasis=   168 RedAO= T  NBF=   168
 NBsUse=   168 1.00D-06 NBFU=   168
 Initial guess read from the read-write file.
 B after Tr=     0.000000    0.000000    0.000000
         Rot=    1.000000    0.000000    0.000000    0.000000 Ang=   0.00 deg.
 Initial guess orbital symmetries:
       Occupied  (A) (A) (A) (A) (A) (A) (A) (A) (A) (A) (A) (A)
                 (A) (A) (A) (A) (A) (A) (A) (A) (A) (A) (A) (A)
                 (A) (A) (A) (A) (A) (A) (A) (A) (A) (A) (A) (A)
                 (A) (A) (A) (A) (A) (A) (A) (A) (A) (A) (A) (A)
                 (A) (A) (A) (A) (A) (A) (A) (A) (A) (A) (A) (A)
       Virtual   (A) (A) (A) (A) (A) (A) (A) (A) (A) (A) (A) (A)
                 (A) (A) (A) (A) (A) (A) (A) (A) (A) (A) (A) (A)
                 (A) (A) (A) (A) (A) (A) (A) (A) (A) (A) (A) (A)
                 (A) (A) (A) (A) (A) (A) (A) (A) (A) (A) (A) (A)
                 (A) (A) (A) (A) (A) (A) (A) (A) (A) (A) (A) (A)
                 (A) (A) (A) (A) (A) (A) (A) (A) (A) (A) (A) (A)
                 (A) (A) (A) (A) (A) (A) (A) (A) (A) (A) (A) (A)
                 (A) (A) (A) (A) (A) (A) (A) (A) (A) (A) (A) (A)
                 (A) (A) (A) (A) (A) (A) (A) (A) (A) (A) (A) (A)
 Harris functional with IExCor=  205 diagonalized for initial guess.
[...]
                 (A) (A) (A) (A) (A) (A) (A) (A) (A) (A) (A) (A)
                 (A) (A) (A) (A) (A) (A) (A) (A) (A) (A) (A) (A)
                 (A) (A) (A) (A) (A) (A) (A) (A) (A) (A) (A) (A)
                 (A) (A) (A) (A) (A) (A) (A) (A) (A) (A) (A) (A)
 The electronic state is 1-A.
 Alpha  occ. eigenvalues --  -19.17575 -19.17219 -19.14194 -19.13432 -19.12949
 Alpha  occ. eigenvalues --  -14.41641 -14.39431 -10.34899 -10.30995 -10.30728
 Alpha  occ. eigenvalues --  -10.27273 -10.25147 -10.24454 -10.22842 -10.21026
 Alpha  occ. eigenvalues --  -10.20848  -1.09048  -1.06721  -1.04625  -1.04324
 Alpha  occ. eigenvalues --   -1.00820  -0.98726  -0.93536  -0.81323  -0.79323
 Alpha  occ. eigenvalues --   -0.76997  -0.70522  -0.68387  -0.65544  -0.62723
 Alpha  occ. eigenvalues --   -0.60164  -0.58569  -0.55604  -0.54255  -0.52433
 Alpha  occ. eigenvalues --   -0.50409  -0.49811  -0.48756  -0.48275  -0.46978
 Alpha  occ. eigenvalues --   -0.45891  -0.44665  -0.43729  -0.42253  -0.42080
 Alpha  occ. eigenvalues --   -0.41376  -0.40304  -0.39448  -0.38750  -0.37162
 Alpha  occ. eigenvalues --   -0.36055  -0.34657  -0.32413  -0.30515  -0.29067
 Alpha  occ. eigenvalues --   -0.28914  -0.28176  -0.26645  -0.26149  -0.25199
 Alpha virt. eigenvalues --   -0.04475  -0.00079   0.04267   0.06035   0.07925
 Alpha virt. eigenvalues --    0.09081   0.10797   0.11220   0.11723   0.13105
 Alpha virt. eigenvalues --    0.13415   0.14754   0.15104   0.16024   0.16806
 Alpha virt. eigenvalues --    0.17477   0.19096   0.19478   0.20436   0.21905
 Alpha virt. eigenvalues --    0.23300   0.23413   0.25748   0.26043   0.27024
 Alpha virt. eigenvalues --    0.28408   0.30548   0.31191   0.32968   0.35289
 Alpha virt. eigenvalues --    0.37963   0.45436   0.46946   0.48639   0.50362
 Alpha virt. eigenvalues --    0.51226   0.52603   0.53563   0.54453   0.55012
 Alpha virt. eigenvalues --    0.56689   0.57119   0.58248   0.59521   0.60715
 Alpha virt. eigenvalues --    0.61862   0.62098   0.63146   0.63857   0.66451
 Alpha virt. eigenvalues --    0.67285   0.68795   0.69190   0.73983   0.74485
 Alpha virt. eigenvalues --    0.76242   0.76632   0.78567   0.78818   0.79250
 Alpha virt. eigenvalues --    0.80501   0.81762   0.82721   0.83362   0.84225
 Alpha virt. eigenvalues --    0.85463   0.86236   0.87248   0.88086   0.89184
 Alpha virt. eigenvalues --    0.89744   0.91579   0.92472   0.93660   0.94156
 Alpha virt. eigenvalues --    0.94647   0.95929   0.97898   1.01010   1.01657
 Alpha virt. eigenvalues --    1.01802   1.03718   1.04321   1.06028   1.07602
 Alpha virt. eigenvalues --    1.10398   1.11838   1.13120   1.14384   1.16286
 Alpha virt. eigenvalues --    1.17394   1.20048   1.22843   1.24265   1.27749
 Alpha virt. eigenvalues --    1.30236   1.32878   1.34213   1.36547   1.38220
 Alpha virt. eigenvalues --    1.38670   1.39563   1.42375   1.43432   1.45301
 Alpha virt. eigenvalues --    1.46206   1.48056   1.53554   1.55062   1.56369
 Alpha virt. eigenvalues --    1.59213   1.61696   1.62737   1.64838   1.67721
 Alpha virt. eigenvalues --    1.68615   1.72547   1.73171   1.74590   1.77889
 Alpha virt. eigenvalues --    1.79389   1.79730   1.80039   1.81441   1.83077
 Alpha virt. eigenvalues --    1.84569   1.85380   1.86921   1.87543   1.88588
 Alpha virt. eigenvalues --    1.89808   1.90835   1.93302   1.95408   1.96343
 Alpha virt. eigenvalues --    1.96883   1.97514   1.98812   2.01044   2.01936
 Alpha virt. eigenvalues --    2.04310   2.05246   2.07824   2.09901   2.11369
 Alpha virt. eigenvalues --    2.13037   2.13359   2.15807   2.18039   2.19979
 Alpha virt. eigenvalues --    2.22379   2.25072   2.28735   2.30486   2.31896
 Alpha virt. eigenvalues --    2.33569   2.34666   2.38533   2.40266   2.42221
 Alpha virt. eigenvalues --    2.44447   2.46791   2.48201   2.50327   2.51569
 Alpha virt. eigenvalues --    2.54191   2.57820   2.59089   2.61524   2.62803
 Alpha virt. eigenvalues --    2.63717   2.65103   2.66984   2.69611   2.75961
 Alpha virt. eigenvalues --    2.76359   2.78327   2.81221   2.84066   2.85831
 Alpha virt. eigenvalues --    2.92065   2.93909   2.97782   2.99605   3.02625
 Alpha virt. eigenvalues --    3.06144   3.23148   3.38290   3.79365   3.83596
 Alpha virt. eigenvalues --    3.96325   3.97691   4.04296   4.11044   4.16269
 Alpha virt. eigenvalues --    4.21588   4.23248   4.31678   4.40483   4.46806
 Alpha virt. eigenvalues --    4.55257   4.65452   4.66905   4.68716
          Condensed to atoms (all electrons):
              1          2          3          4          5          6
     1  O    8.281411   0.193642  -0.040094   0.002675   0.001281  -0.035498
     2  C    0.193642   4.927872   0.348532  -0.051001  -0.036083   0.333999
     3  C   -0.040094   0.348532   5.309779   0.305030  -0.057505  -0.077963
     4  C    0.002675  -0.051001   0.305030   4.675937   0.259329  -0.036430
     5  O    0.001281  -0.036083  -0.057505   0.259329   8.312188   0.179929
     6  C   -0.035498   0.333999  -0.077963  -0.036430   0.179929   4.941495
     7  C   -0.000789  -0.022725   0.005185   0.003920  -0.028248   0.363509
     8  O   -0.006807  -0.000697   0.000057  -0.000066   0.001345  -0.030665
     9  N   -0.000022  -0.001950  -0.020776   0.252362  -0.071393   0.004136
    10  C    0.000011   0.001160  -0.007702  -0.013193   0.008534  -0.000549
    11  N    0.000000   0.000007  -0.000029   0.002701  -0.000037  -0.000007
    12  O    0.000067  -0.007622   0.001755   0.001605  -0.002099   0.000470
    13  C    0.000000  -0.000015   0.002949  -0.029642   0.001953  -0.000070
    14  C    0.000000   0.000005  -0.000318   0.003685  -0.000188   0.000007
    15  C    0.000000  -0.000001   0.000024   0.000251   0.000024  -0.000001
    16  O    0.000000   0.000000   0.000000   0.000001   0.000000   0.000000
    17  H    0.233632  -0.019223  -0.002369  -0.000166  -0.000089   0.006338
    18  H   -0.035175   0.367824  -0.053990   0.003975   0.001057  -0.041467
    19  H    0.003751  -0.032777   0.342942  -0.020190   0.002252  -0.003695
    20  H    0.001624  -0.018788   0.355023  -0.023057   0.002051   0.005839
    21  H   -0.000034   0.002442  -0.053249   0.388991  -0.044563   0.001468
    22  H    0.005413  -0.068316  -0.006778  -0.002470  -0.035199   0.361160
    23  H   -0.000177   0.006210  -0.000229  -0.000181   0.001129  -0.031658
    24  H    0.000303  -0.016900  -0.000153  -0.000194   0.004750  -0.041813
    25  H    0.031090   0.002273   0.000573  -0.000042   0.000141  -0.011796
    26  H    0.000000   0.000000  -0.000003  -0.000063   0.000004   0.000000
    27  H    0.000000  -0.000008   0.000251  -0.003902   0.000228  -0.000014
    28  H    0.000000   0.000000   0.000001  -0.000082   0.000000   0.000000
              7          8          9         10         11         12
     1  O   -0.000789  -0.006807  -0.000022   0.000011   0.000000   0.000067
     2  C   -0.022725  -0.000697  -0.001950   0.001160   0.000007  -0.007622
     3  C    0.005185   0.000057  -0.020776  -0.007702  -0.000029   0.001755
     4  C    0.003920  -0.000066   0.252362  -0.013193   0.002701   0.001605
     5  O   -0.028248   0.001345  -0.071393   0.008534  -0.000037  -0.002099
     6  C    0.363509  -0.030665   0.004136  -0.000549  -0.000007   0.000470
     7  C    4.813332   0.266975  -0.000004  -0.000116   0.000000  -0.000198
     8  O    0.266975   8.242615   0.000000   0.000000   0.000000   0.000000
     9  N   -0.000004   0.000000   7.149445   0.216181  -0.095009  -0.085502
    10  C   -0.000116   0.000000   0.216181   4.184658   0.258060   0.588849
    11  N    0.000000   0.000000  -0.095009   0.258060   7.351336  -0.083150
    12  O   -0.000198   0.000000  -0.085502   0.588849  -0.083150   8.076917
    13  C    0.000001   0.000000   0.318170  -0.033009  -0.005941   0.001506
    14  C    0.000000   0.000000  -0.032609  -0.003339  -0.104063   0.000320
    15  C    0.000000   0.000000  -0.013869  -0.004349   0.190876   0.000621
    16  O    0.000000   0.000000   0.000055   0.001656  -0.090616  -0.000020
    17  H   -0.000210   0.000297  -0.000001  -0.000001   0.000000   0.000002
    18  H   -0.006803  -0.000118   0.000040   0.000393   0.000072   0.012994
    19  H   -0.000060  -0.000004   0.002992   0.000368   0.000005   0.000408
    20  H   -0.000133   0.000001  -0.007485   0.002261  -0.000258   0.004019
    21  H   -0.000214   0.000002  -0.070397   0.005789  -0.000165   0.000041
    22  H   -0.051554   0.007166  -0.000376   0.000094   0.000000  -0.000017
    23  H    0.372771  -0.039201   0.000004  -0.000003   0.000000   0.000002
    24  H    0.351338  -0.037909  -0.000075   0.000317   0.000000   0.000467
    25  H   -0.035698   0.233589   0.000000   0.000000   0.000000   0.000000
    26  H    0.000000   0.000000   0.004970  -0.013276   0.274967   0.004080
    27  H    0.000000   0.000000  -0.051261   0.002193  -0.000473  -0.000113
    28  H    0.000000   0.000000   0.003365   0.000316   0.004879   0.000003
             13         14         15         16         17         18
     1  O    0.000000   0.000000   0.000000   0.000000   0.233632  -0.035175
     2  C   -0.000015   0.000005  -0.000001   0.000000  -0.019223   0.367824
     3  C    0.002949  -0.000318   0.000024   0.000000  -0.002369  -0.053990
     4  C   -0.029642   0.003685   0.000251   0.000001  -0.000166   0.003975
     5  O    0.001953  -0.000188   0.000024   0.000000  -0.000089   0.001057
     6  C   -0.000070   0.000007  -0.000001   0.000000   0.006338  -0.041467
     7  C    0.000001   0.000000   0.000000   0.000000  -0.000210  -0.006803
     8  O    0.000000   0.000000   0.000000   0.000000   0.000297  -0.000118
     9  N    0.318170  -0.032609  -0.013869   0.000055  -0.000001   0.000040
    10  C   -0.033009  -0.003339  -0.004349   0.001656  -0.000001   0.000393
    11  N   -0.005941  -0.104063   0.190876  -0.090616   0.000000   0.000072
    12  O    0.001506   0.000320   0.000621  -0.000020   0.000002   0.012994
    13  C    4.825149   0.492216  -0.006470   0.004624   0.000000  -0.000010
    14  C    0.492216   5.250210   0.375763  -0.072051   0.000000   0.000000
    15  C   -0.006470   0.375763   4.261152   0.601618   0.000000   0.000000
    16  O    0.004624  -0.072051   0.601618   8.047959   0.000000   0.000000
    17  H    0.000000   0.000000   0.000000   0.000000   0.382217  -0.005408
    18  H   -0.000010   0.000000   0.000000   0.000000  -0.005408   0.568124
    19  H   -0.000086   0.000002   0.000000   0.000000  -0.000316   0.006040
    20  H    0.000313   0.000016  -0.000005   0.000000   0.000730  -0.006696
    21  H   -0.003322   0.001256  -0.000057   0.000000   0.000004  -0.000134
    22  H   -0.000008   0.000000   0.000000   0.000000  -0.000201   0.006100
    23  H    0.000001   0.000000   0.000000   0.000000   0.000013   0.000043
    24  H   -0.000001   0.000000   0.000000   0.000000  -0.000004   0.006360
    25  H    0.000000   0.000000   0.000000   0.000000  -0.000694  -0.000077
    26  H   -0.000546   0.007495  -0.007535   0.006587   0.000000   0.000001
    27  H    0.362766  -0.028682   0.002829  -0.000064   0.000000   0.000000
    28  H   -0.038483   0.365059  -0.026490  -0.000888   0.000000   0.000000
             19         20         21         22         23         24
     1  O    0.003751   0.001624  -0.000034   0.005413  -0.000177   0.000303
     2  C   -0.032777  -0.018788   0.002442  -0.068316   0.006210  -0.016900
     3  C    0.342942   0.355023  -0.053249  -0.006778  -0.000229  -0.000153
     4  C   -0.020190  -0.023057   0.388991  -0.002470  -0.000181  -0.000194
     5  O    0.002252   0.002051  -0.044563  -0.035199   0.001129   0.004750
     6  C   -0.003695   0.005839   0.001468   0.361160  -0.031658  -0.041813
     7  C   -0.000060  -0.000133  -0.000214  -0.051554   0.372771   0.351338
     8  O   -0.000004   0.000001   0.000002   0.007166  -0.039201  -0.037909
     9  N    0.002992  -0.007485  -0.070397  -0.000376   0.000004  -0.000075
    10  C    0.000368   0.002261   0.005789   0.000094  -0.000003   0.000317
    11  N    0.000005  -0.000258  -0.000165   0.000000   0.000000   0.000000
    12  O    0.000408   0.004019   0.000041  -0.000017   0.000002   0.000467
    13  C   -0.000086   0.000313  -0.003322  -0.000008   0.000001  -0.000001
    14  C    0.000002   0.000016   0.001256   0.000000   0.000000   0.000000
    15  C    0.000000  -0.000005  -0.000057   0.000000   0.000000   0.000000
    16  O    0.000000   0.000000   0.000000   0.000000   0.000000   0.000000
    17  H   -0.000316   0.000730   0.000004  -0.000201   0.000013  -0.000004
    18  H    0.006040  -0.006696  -0.000134   0.006100   0.000043   0.006360
    19  H    0.572806  -0.029941  -0.008001   0.002370   0.000005  -0.000004
    20  H   -0.029941   0.535329   0.003711  -0.000078   0.000003  -0.000001
    21  H   -0.008001   0.003711   0.624568   0.002607  -0.000013   0.000024
    22  H    0.002370  -0.000078   0.002607   0.635998  -0.007223   0.007614
    23  H    0.000005   0.000003  -0.000013  -0.007223   0.590010  -0.049518
    24  H   -0.000004  -0.000001   0.000024   0.007614  -0.049518   0.642745
    25  H    0.000001  -0.000004   0.000003  -0.000054   0.005719  -0.001176
    26  H    0.000000   0.000011   0.000005   0.000000   0.000000   0.000000
    27  H   -0.000058   0.000039   0.007523   0.000003   0.000000   0.000000
    28  H    0.000000   0.000000   0.000002   0.000000   0.000000   0.000000
             25         26         27         28
     1  O    0.031090   0.000000   0.000000   0.000000
     2  C    0.002273   0.000000  -0.000008   0.000000
     3  C    0.000573  -0.000003   0.000251   0.000001
     4  C   -0.000042  -0.000063  -0.003902  -0.000082
     5  O    0.000141   0.000004   0.000228   0.000000
     6  C   -0.011796   0.000000  -0.000014   0.000000
     7  C   -0.035698   0.000000   0.000000   0.000000
     8  O    0.233589   0.000000   0.000000   0.000000
     9  N    0.000000   0.004970  -0.051261   0.003365
    10  C    0.000000  -0.013276   0.002193   0.000316
    11  N    0.000000   0.274967  -0.000473   0.004879
    12  O    0.000000   0.004080  -0.000113   0.000003
    13  C    0.000000  -0.000546   0.362766  -0.038483
    14  C    0.000000   0.007495  -0.028682   0.365059
    15  C    0.000000  -0.007535   0.002829  -0.026490
    16  O    0.000000   0.006587  -0.000064  -0.000888
    17  H   -0.000694   0.000000   0.000000   0.000000
    18  H   -0.000077   0.000001   0.000000   0.000000
    19  H    0.000001   0.000000  -0.000058   0.000000
    20  H   -0.000004   0.000011   0.000039   0.000000
    21  H    0.000003   0.000005   0.007523   0.000002
    22  H   -0.000054   0.000000   0.000003   0.000000
    23  H    0.005719   0.000000   0.000000   0.000000
    24  H   -0.001176   0.000000   0.000000   0.000000
    25  H    0.368348   0.000000   0.000000   0.000000
    26  H    0.000000   0.366331   0.000029  -0.000133
    27  H    0.000000   0.000029   0.531860  -0.004494
    28  H    0.000000  -0.000133  -0.004494   0.529532
 Mulliken atomic charges:
              1
     1  O   -0.636305
     2  C    0.092141
     3  C   -0.350944
     4  C    0.280215
     5  O   -0.500790
     6  C    0.113276
     7  C   -0.030281
     8  O   -0.636582
     9  N   -0.500989
    10  C    0.804695
    11  N   -0.703155
    12  O   -0.515406
    13  C    0.107953
    14  C   -0.254782
    15  C    0.625618
    16  O   -0.498862
    17  H    0.405446
    18  H    0.176857
    19  H    0.161190
    20  H    0.175477
    21  H    0.141715
    22  H    0.143748
    23  H    0.152294
    24  H    0.133829
    25  H    0.407803
    26  H    0.357077
    27  H    0.181347
    28  H    0.167414
 Sum of Mulliken atomic charges =   0.00000
 Mulliken charges with hydrogens summed into heavy atoms:
              1
     1  O   -0.230858
     2  C    0.268998
     3  C   -0.014277
     4  C    0.421930
     5  O   -0.500790
     6  C    0.257024
     7  C    0.255843
     8  O   -0.228779
     9  N   -0.500989
    10  C    0.804695
    11  N   -0.346078
    12  O   -0.515406
    13  C    0.289300
    14  C   -0.087369
    15  C    0.625618
    16  O   -0.498862
 Sum of Mulliken charges with hydrogens summed into heavy atoms =   0.00000
 Electronic spatial extent (au):  <R**2>=           4215.1641
 Charge=              0.0000 electrons
 Dipole moment (field-independent basis, Debye):
    X=              0.5824    Y=              3.7377    Z=              1.9900  Tot=              4.2743
 Quadrupole moment (field-independent basis, Debye-Ang):
   XX=           -121.3411   YY=            -88.0370   ZZ=            -86.6685
   XY=             -3.2429   XZ=             10.6951   YZ=             -3.3419
 Traceless Quadrupole moment (field-independent basis, Debye-Ang):
   XX=            -22.6589   YY=             10.6452   ZZ=             12.0137
   XY=             -3.2429   XZ=             10.6951   YZ=             -3.3419
 Octapole moment (field-independent basis, Debye-Ang**2):
  XXX=             75.8234  YYY=             -0.5330  ZZZ=             22.1403  XYY=            -10.6990
  XXY=             42.5321  XXZ=             40.1942  XZZ=             15.2155  YZZ=              0.8716
  YYZ=             -2.1524  XYZ=              2.4238
 Hexadecapole moment (field-independent basis, Debye-Ang**3):
 XXXX=          -5168.7920 YYYY=           -564.7801 ZZZZ=           -475.2757 XXXY=           -100.1225
 XXXZ=            206.2053 YYYX=             32.4071 YYYZ=            -23.3622 ZZZX=             55.4428
 ZZZY=              6.6850 XXYY=           -818.0594 XXZZ=           -700.4692 YYZZ=           -178.9064
 XXYZ=            -83.1982 YYXZ=              8.3522 ZZXY=              7.7677
 N-N= 1.165909220418D+03 E-N=-4.284679462465D+03  KE= 8.284089749140D+02
 1|1|UNPC-DESKTOP-N7IAV1E|FOpt|RB3LYP|6-31G(d)|C9H12N2O5|KAWAS|13-Mar-2
 019|0||#opt b3lyp/6-31g(d) Geom=AllCheck Guess=Read||Conformer_1 at -5
 6.52007976270452 MMFF energy generated from O[C@H]1C[C@@H](O[C@@H]1CO)
 N(C(N2)=O)C=CC2=O||0,1|O,3.1480312315,0.6329735927,1.1843754895|C,1.87
 41564131,0.2106950553,0.6946635576|C,0.76843636,1.2775776382,0.7111893
 96|C,-0.0494103082,0.9696660329,-0.5672835551|O,0.6730158819,-0.001446
 2243,-1.3086600013|C,2.0078860437,-0.0952394198,-0.8018776533|C,2.6006
 518659,-1.4671861973,-1.1044995717|O,3.9701469982,-1.5024859628,-0.735
 8502943|N,-1.4269745232,0.4959158252,-0.3706147366|C,-1.6786051352,-0.
 5769321644,0.4997486347|N,-2.9959703071,-0.9941205172,0.513876916|O,-0
 .822636273,-1.0888765072,1.202838405|C,-2.4339875791,0.9983266319,-1.1
 75331242|C,-3.7096572225,0.5600930897,-1.1463355546|C,-4.0868738379,-0
 .5204348944,-0.2477849648|O,-5.1944489688,-1.0122150695,-0.1159444994|
 H,3.1158992506,0.6255171706,2.1534351176|H,1.530838556,-0.6847674188,1
 .2214451031|H,1.2311625929,2.2657484781,0.615090431|H,0.1571411246,1.2
 599533726,1.6143965116|H,-0.160667495,1.8792413568,-1.1694895197|H,2.6
 488369081,0.6743750197,-1.2614579268|H,2.5486993345,-1.6725259861,-2.1
 786040713|H,2.0083166505,-2.237931776,-0.585001718|H,4.0594543049,-1.0
 157973168,0.1024930172|H,-3.1923976414,-1.7616524078,1.1470948173|H,-2
 .1206767865,1.7935446081,-1.8431716788|H,-4.4700674385,0.9882839905,-1
 .785340409||Version=EM64W-G09RevC.01|State=1-A|HF=-835.8020745|RMSD=6.
 781e-009|RMSF=1.502e-005|Dipole=0.229721,1.5841741,0.5153291|Quadrupol
 e=-17.2568429,7.0929102,10.1639327,-0.7021406,7.5571836,-2.2384299|PG=
 C01 [X(C9H12N2O5)]||@


 I think that all right-thinking people in this
 country are sick and tired of being told that
 ordinary, decent people are fed up in this country
 with being sick and tired.  I'm certainly not!
 But I'm sick and tired of being told that I am!
                               -- Monty Python
 Job cpu time:  0 days  2 hours  1 minutes 35.0 seconds.
 File lengths (MBytes):  RWF=     49 Int=      0 D2E=      0 Chk=      6 Scr=      1
 Normal termination of Gaussian 09 at Wed Mar 13 22:14:07 2019.
