 Entering Gaussian System, Link 0=C:\G09W\g09.exe
 Input=entry1_confs_0.gjf
 Output=C:\Users\kawas\Desktop\fluorescene_okuda\calcs\nucleosides_trial2\entries\entry1\entry1_confs_0.out
 Initial command:
 C:/G09W\l1.exe .\Gau-18568.inp C:\Users\kawas\Desktop\fluorescene_okuda\calcs\nucleosides_trial2\entries\entry1\entry1_confs_0.out /scrdir=.\
 Entering Link 1 = C:/G09W\l1.exe PID=     23408.
  
 Copyright (c) 1988,1990,1992,1993,1995,1998,2003,2009,2011,
            Gaussian, Inc.  All Rights Reserved.
  
 This is part of the Gaussian(R) 09 program.  It is based on
 the Gaussian(R) 03 system (copyright 2003, Gaussian, Inc.),
 the Gaussian(R) 98 system (copyright 1998, Gaussian, Inc.),
 the Gaussian(R) 94 system (copyright 1995, Gaussian, Inc.),
 the Gaussian 92(TM) system (copyright 1992, Gaussian, Inc.),
 the Gaussian 90(TM) system (copyright 1990, Gaussian, Inc.),
 the Gaussian 88(TM) system (copyright 1988, Gaussian, Inc.),
 the Gaussian 86(TM) system (copyright 1986, Carnegie Mellon
 University), and the Gaussian 82(TM) system (copyright 1983,
 Carnegie Mellon University). Gaussian is a federally registered
 trademark of Gaussian, Inc.
  
 This software contains proprietary and confidential information,
 including trade secrets, belonging to Gaussian, Inc.
  
 This software is provided under written license and may be
 used, copied, transmitted, or stored only in accord with that
 written license.
  
 The following legend is applicable only to US Government
 contracts under FAR:
  
                    RESTRICTED RIGHTS LEGEND
  
 Use, reproduction and disclosure by the US Government is
 subject to restrictions as set forth in subparagraphs (a)
 and (c) of the Commercial Computer Software - Restricted
 Rights clause in FAR 52.227-19.
  
 Gaussian, Inc.
 340 Quinnipiac St., Bldg. 40, Wallingford CT 06492
  
  
 ---------------------------------------------------------------
 Warning -- This program may not be used in any manner that
 competes with the business of Gaussian, Inc. or will provide
 assistance to any competitor of Gaussian, Inc.  The licensee
 of this program is prohibited from giving any competitor of
 Gaussian, Inc. access to this program.  By using this program,
 the user acknowledges that Gaussian, Inc. is engaged in the
 business of creating and licensing software in the field of
 computational chemistry and represents and warrants to the
 licensee that it is not a competitor of Gaussian, Inc. and that
 it will not use this program in any manner prohibited above.
 ---------------------------------------------------------------
  

 Cite this work as:
 Gaussian 09, Revision C.01,
 M. J. Frisch, G. W. Trucks, H. B. Schlegel, G. E. Scuseria, 
 M. A. Robb, J. R. Cheeseman, G. Scalmani, V. Barone, B. Mennucci, 
 G. A. Petersson, H. Nakatsuji, M. Caricato, X. Li, H. P. Hratchian, 
 A. F. Izmaylov, J. Bloino, G. Zheng, J. L. Sonnenberg, M. Hada, 
 M. Ehara, K. Toyota, R. Fukuda, J. Hasegawa, M. Ishida, T. Nakajima, 
 Y. Honda, O. Kitao, H. Nakai, T. Vreven, J. A. Montgomery, Jr., 
 J. E. Peralta, F. Ogliaro, M. Bearpark, J. J. Heyd, E. Brothers, 
 K. N. Kudin, V. N. Staroverov, T. Keith, R. Kobayashi, J. Normand, 
 K. Raghavachari, A. Rendell, J. C. Burant, S. S. Iyengar, J. Tomasi, 
 M. Cossi, N. Rega, J. M. Millam, M. Klene, J. E. Knox, J. B. Cross, 
 V. Bakken, C. Adamo, J. Jaramillo, R. Gomperts, R. E. Stratmann, 
 O. Yazyev, A. J. Austin, R. Cammi, C. Pomelli, J. W. Ochterski, 
 R. L. Martin, K. Morokuma, V. G. Zakrzewski, G. A. Voth, 
 P. Salvador, J. J. Dannenberg, S. Dapprich, A. D. Daniels, 
 O. Farkas, J. B. Foresman, J. V. Ortiz, J. Cioslowski, 
 and D. J. Fox, Gaussian, Inc., Wallingford CT, 2010.
 
 ******************************************
 Gaussian 09:  EM64W-G09RevC.01 23-Sep-2011
                13-Mar-2019 
 ******************************************
 %chk=entry1_confs_0
 %nprocshared=4
 Will use up to    4 processors via shared memory.
 %mem=260MB
 -------------
 #opt hf/3-21g
 -------------
 1/18=20,19=15,38=1/1,3;
 2/9=110,12=2,17=6,18=5,40=1/2;
 3/5=5,11=9,16=1,25=1,30=1,71=1/1,2,3;
 4//1;
 5/5=2,38=5/2;
 6/7=2,8=2,9=2,10=2,28=1/1;
 7//1,2,3,16;
 1/18=20,19=15/3(2);
 2/9=110/2;
 99//99;
 2/9=110/2;
 3/5=5,11=9,16=1,25=1,30=1,71=1/1,2,3;
 4/5=5,16=3/1;
 5/5=2,38=5/2;
 7//1,2,3,16;
 1/18=20,19=15/3(-5);
 2/9=110/2;
 6/7=2,8=2,9=2,10=2,19=2,28=1/1;
 99/9=1/99;
 ----------------------------------------------------------------------
 Conformer_0 at -21.261678838689907 MMFF energy generated from O=C1C(N=
 CN2[C@H]3C[C@H](O)[C@@H](CO)O3)=C2N=C(N)N1
 ----------------------------------------------------------------------
 Charge =  0 Multiplicity = 1
 Symbolic Z-Matrix:
 O                     4.4599    0.5441   -1.7851 
 C                     3.6107    0.5341   -0.8651 
 C                     2.4649   -0.2162   -1.0581 
 N                     2.0122   -0.9874   -2.0578 
 C                     0.8188   -1.4676   -1.672 
 N                     0.5255   -1.0049   -0.4473 
 C                    -0.6975   -1.3424    0.2512 
 C                    -1.1746   -0.2501    1.1738 
 C                    -2.6912   -0.3611    0.9557 
 O                    -3.2071   -1.4225    1.6675 
 C                    -2.7179   -0.7031   -0.5163 
 C                    -2.5709    0.5736   -1.2957 
 O                    -2.4789    0.3016   -2.6786 
 O                    -1.6798   -1.5774   -0.6697 
 C                     1.5358   -0.2256   -0.0488 
 N                     1.7004    0.4581    1.1001 
 C                     2.8223    1.18      1.2642 
 N                     3.0619    1.9254    2.4503 
 N                     3.7664    1.2096    0.2775 
 H                     0.2116   -2.1308   -2.2906 
 H                    -0.5737   -2.256     0.8742 
 H                    -0.9236   -0.4326    2.2236 
 H                    -0.8546    0.7647    0.8205 
 H                    -3.1925    0.6054    1.1587 
 H                    -3.4736   -2.1887    1.1038 
 H                    -3.685    -1.1711   -0.7892 
 H                    -1.7491    1.2083   -0.9583 
 H                    -3.5256    1.1474   -1.1743 
 H                    -2.7394    1.0776   -3.2201 
 H                     3.3587    2.92      2.3905 
 H                     2.9517    1.5134    3.3992 
 H                     4.6344    1.7742    0.4162 
 

 GradGradGradGradGradGradGradGradGradGradGradGradGradGradGradGradGradGrad
 Berny optimization.
 Initialization pass.
                           ----------------------------
                           !    Initial Parameters    !
                           ! (Angstroms and Degrees)  !
 --------------------------                            --------------------------
 ! Name  Definition              Value          Derivative Info.                !
 --------------------------------------------------------------------------------
 ! R1    R(1,2)                  1.2521         estimate D2E/DX2                !
 ! R2    R(2,3)                  1.3831         estimate D2E/DX2                !
 ! R3    R(2,19)                 1.3364         estimate D2E/DX2                !
 ! R4    R(3,4)                  1.3413         estimate D2E/DX2                !
 ! R5    R(3,15)                 1.3719         estimate D2E/DX2                !
 ! R6    R(4,5)                  1.343          estimate D2E/DX2                !
 ! R7    R(5,6)                  1.3416         estimate D2E/DX2                !
 ! R8    R(5,20)                 1.0914         estimate D2E/DX2                !
 ! R9    R(6,7)                  1.4483         estimate D2E/DX2                !
 ! R10   R(6,15)                 1.3367         estimate D2E/DX2                !
 ! R11   R(7,8)                  1.5073         estimate D2E/DX2                !
 ! R12   R(7,14)                 1.3668         estimate D2E/DX2                !
 ! R13   R(7,21)                 1.1127         estimate D2E/DX2                !
 ! R14   R(8,9)                  1.5362         estimate D2E/DX2                !
 ! R15   R(8,22)                 1.0947         estimate D2E/DX2                !
 ! R16   R(8,23)                 1.1212         estimate D2E/DX2                !
 ! R17   R(9,10)                 1.3782         estimate D2E/DX2                !
 ! R18   R(9,11)                 1.5114         estimate D2E/DX2                !
 ! R19   R(9,24)                 1.1075         estimate D2E/DX2                !
 ! R20   R(10,25)                0.9878         estimate D2E/DX2                !
 ! R21   R(11,12)                1.503          estimate D2E/DX2                !
 ! R22   R(11,14)                1.3659         estimate D2E/DX2                !
 ! R23   R(11,26)                1.1085         estimate D2E/DX2                !
 ! R24   R(12,13)                1.4124         estimate D2E/DX2                !
 ! R25   R(12,27)                1.0918         estimate D2E/DX2                !
 ! R26   R(12,28)                1.1205         estimate D2E/DX2                !
 ! R27   R(13,29)                0.9815         estimate D2E/DX2                !
 ! R28   R(15,16)                1.347          estimate D2E/DX2                !
 ! R29   R(16,17)                1.3441         estimate D2E/DX2                !
 ! R30   R(17,18)                1.4212         estimate D2E/DX2                !
 ! R31   R(17,19)                1.3659         estimate D2E/DX2                !
 ! R32   R(18,30)                1.0397         estimate D2E/DX2                !
 ! R33   R(18,31)                1.0403         estimate D2E/DX2                !
 ! R34   R(19,32)                1.0447         estimate D2E/DX2                !
 ! A1    A(1,2,3)              117.6239         estimate D2E/DX2                !
 ! A2    A(1,2,19)             123.0356         estimate D2E/DX2                !
 ! A3    A(3,2,19)             119.3405         estimate D2E/DX2                !
 ! A4    A(2,3,4)              134.0665         estimate D2E/DX2                !
 ! A5    A(2,3,15)             117.5228         estimate D2E/DX2                !
 ! A6    A(4,3,15)             108.4107         estimate D2E/DX2                !
 ! A7    A(3,4,5)              106.9412         estimate D2E/DX2                !
 ! A8    A(4,5,6)              109.4617         estimate D2E/DX2                !
 ! A9    A(4,5,20)             123.2862         estimate D2E/DX2                !
 ! A10   A(6,5,20)             127.2521         estimate D2E/DX2                !
 ! A11   A(5,6,7)              122.9901         estimate D2E/DX2                !
 ! A12   A(5,6,15)             107.9366         estimate D2E/DX2                !
 ! A13   A(7,6,15)             129.0733         estimate D2E/DX2                !
 ! A14   A(6,7,8)              113.1802         estimate D2E/DX2                !
 ! A15   A(6,7,14)             108.784          estimate D2E/DX2                !
 ! A16   A(6,7,21)             111.5563         estimate D2E/DX2                !
 ! A17   A(8,7,14)             108.0299         estimate D2E/DX2                !
 ! A18   A(8,7,21)             106.7091         estimate D2E/DX2                !
 ! A19   A(14,7,21)            108.4227         estimate D2E/DX2                !
 ! A20   A(7,8,9)               99.9753         estimate D2E/DX2                !
 ! A21   A(7,8,22)             113.1783         estimate D2E/DX2                !
 ! A22   A(7,8,23)             111.8821         estimate D2E/DX2                !
 ! A23   A(9,8,22)             110.5154         estimate D2E/DX2                !
 ! A24   A(9,8,23)             107.6037         estimate D2E/DX2                !
 ! A25   A(22,8,23)            112.8077         estimate D2E/DX2                !
 ! A26   A(8,9,10)             110.6021         estimate D2E/DX2                !
 ! A27   A(8,9,11)              99.9074         estimate D2E/DX2                !
 ! A28   A(8,9,24)             110.9633         estimate D2E/DX2                !
 ! A29   A(10,9,11)            108.7914         estimate D2E/DX2                !
 ! A30   A(10,9,24)            114.0777         estimate D2E/DX2                !
 ! A31   A(11,9,24)            111.5905         estimate D2E/DX2                !
 ! A32   A(9,10,25)            113.8042         estimate D2E/DX2                !
 ! A33   A(9,11,12)            108.1253         estimate D2E/DX2                !
 ! A34   A(9,11,14)            103.9333         estimate D2E/DX2                !
 ! A35   A(9,11,26)            110.5305         estimate D2E/DX2                !
 ! A36   A(12,11,14)           114.2773         estimate D2E/DX2                !
 ! A37   A(12,11,26)           108.4385         estimate D2E/DX2                !
 ! A38   A(14,11,26)           111.4189         estimate D2E/DX2                !
 ! A39   A(11,12,13)           110.519          estimate D2E/DX2                !
 ! A40   A(11,12,27)           114.0269         estimate D2E/DX2                !
 ! A41   A(11,12,28)           107.1864         estimate D2E/DX2                !
 ! A42   A(13,12,27)           111.4384         estimate D2E/DX2                !
 ! A43   A(13,12,28)           105.0825         estimate D2E/DX2                !
 ! A44   A(27,12,28)           108.0686         estimate D2E/DX2                !
 ! A45   A(12,13,29)           111.7559         estimate D2E/DX2                !
 ! A46   A(7,14,11)            111.1304         estimate D2E/DX2                !
 ! A47   A(3,15,6)             107.2498         estimate D2E/DX2                !
 ! A48   A(3,15,16)            122.7697         estimate D2E/DX2                !
 ! A49   A(6,15,16)            129.9805         estimate D2E/DX2                !
 ! A50   A(15,16,17)           118.6013         estimate D2E/DX2                !
 ! A51   A(16,17,18)           121.62           estimate D2E/DX2                !
 ! A52   A(16,17,19)           120.0227         estimate D2E/DX2                !
 ! A53   A(18,17,19)           118.3574         estimate D2E/DX2                !
 ! A54   A(17,18,30)           120.1239         estimate D2E/DX2                !
 ! A55   A(17,18,31)           122.388          estimate D2E/DX2                !
 ! A56   A(30,18,31)           117.4881         estimate D2E/DX2                !
 ! A57   A(2,19,17)            121.7431         estimate D2E/DX2                !
 ! A58   A(2,19,32)            118.9118         estimate D2E/DX2                !
 ! A59   A(17,19,32)           119.3451         estimate D2E/DX2                !
 ! D1    D(1,2,3,4)              0.0184         estimate D2E/DX2                !
 ! D2    D(1,2,3,15)          -179.995          estimate D2E/DX2                !
 ! D3    D(19,2,3,4)          -179.9842         estimate D2E/DX2                !
 ! D4    D(19,2,3,15)            0.0024         estimate D2E/DX2                !
 ! D5    D(1,2,19,17)          179.9973         estimate D2E/DX2                !
 ! D6    D(1,2,19,32)            0.0006         estimate D2E/DX2                !
 ! D7    D(3,2,19,17)            0.0001         estimate D2E/DX2                !
 ! D8    D(3,2,19,32)         -179.9966         estimate D2E/DX2                !
 ! D9    D(2,3,4,5)            179.985          estimate D2E/DX2                !
 ! D10   D(15,3,4,5)            -0.0025         estimate D2E/DX2                !
 ! D11   D(2,3,15,6)          -179.9853         estimate D2E/DX2                !
 ! D12   D(2,3,15,16)           -0.0062         estimate D2E/DX2                !
 ! D13   D(4,3,15,6)             0.0046         estimate D2E/DX2                !
 ! D14   D(4,3,15,16)          179.9836         estimate D2E/DX2                !
 ! D15   D(3,4,5,6)             -0.0006         estimate D2E/DX2                !
 ! D16   D(3,4,5,20)          -179.9981         estimate D2E/DX2                !
 ! D17   D(4,5,6,7)           -179.9555         estimate D2E/DX2                !
 ! D18   D(4,5,6,15)             0.0035         estimate D2E/DX2                !
 ! D19   D(20,5,6,7)             0.0419         estimate D2E/DX2                !
 ! D20   D(20,5,6,15)         -179.9991         estimate D2E/DX2                !
 ! D21   D(5,6,7,8)           -149.3788         estimate D2E/DX2                !
 ! D22   D(5,6,7,14)           -29.2948         estimate D2E/DX2                !
 ! D23   D(5,6,7,21)            90.2608         estimate D2E/DX2                !
 ! D24   D(15,6,7,8)            30.6714         estimate D2E/DX2                !
 ! D25   D(15,6,7,14)          150.7554         estimate D2E/DX2                !
 ! D26   D(15,6,7,21)          -89.689          estimate D2E/DX2                !
 ! D27   D(5,6,15,3)            -0.0049         estimate D2E/DX2                !
 ! D28   D(5,6,15,16)         -179.9819         estimate D2E/DX2                !
 ! D29   D(7,6,15,3)           179.9508         estimate D2E/DX2                !
 ! D30   D(7,6,15,16)           -0.0262         estimate D2E/DX2                !
 ! D31   D(6,7,8,9)            142.0409         estimate D2E/DX2                !
 ! D32   D(6,7,8,22)          -100.4179         estimate D2E/DX2                !
 ! D33   D(6,7,8,23)            28.3654         estimate D2E/DX2                !
 ! D34   D(14,7,8,9)            21.5274         estimate D2E/DX2                !
 ! D35   D(14,7,8,22)          139.0686         estimate D2E/DX2                !
 ! D36   D(14,7,8,23)          -92.1481         estimate D2E/DX2                !
 ! D37   D(21,7,8,9)           -94.8771         estimate D2E/DX2                !
 ! D38   D(21,7,8,22)           22.6641         estimate D2E/DX2                !
 ! D39   D(21,7,8,23)          151.4474         estimate D2E/DX2                !
 ! D40   D(6,7,14,11)         -119.193          estimate D2E/DX2                !
 ! D41   D(8,7,14,11)            4.0331         estimate D2E/DX2                !
 ! D42   D(21,7,14,11)         119.3177         estimate D2E/DX2                !
 ! D43   D(7,8,9,10)            78.4591         estimate D2E/DX2                !
 ! D44   D(7,8,9,11)           -36.0602         estimate D2E/DX2                !
 ! D45   D(7,8,9,24)          -153.8958         estimate D2E/DX2                !
 ! D46   D(22,8,9,10)          -41.0467         estimate D2E/DX2                !
 ! D47   D(22,8,9,11)         -155.5659         estimate D2E/DX2                !
 ! D48   D(22,8,9,24)           86.5984         estimate D2E/DX2                !
 ! D49   D(23,8,9,10)         -164.6164         estimate D2E/DX2                !
 ! D50   D(23,8,9,11)           80.8644         estimate D2E/DX2                !
 ! D51   D(23,8,9,24)          -36.9713         estimate D2E/DX2                !
 ! D52   D(8,9,10,25)         -107.7696         estimate D2E/DX2                !
 ! D53   D(11,9,10,25)           1.0186         estimate D2E/DX2                !
 ! D54   D(24,9,10,25)         126.313          estimate D2E/DX2                !
 ! D55   D(8,9,11,12)          -81.5337         estimate D2E/DX2                !
 ! D56   D(8,9,11,14)           40.2656         estimate D2E/DX2                !
 ! D57   D(8,9,11,26)          159.9143         estimate D2E/DX2                !
 ! D58   D(10,9,11,12)         162.57           estimate D2E/DX2                !
 ! D59   D(10,9,11,14)         -75.6307         estimate D2E/DX2                !
 ! D60   D(10,9,11,26)          44.018          estimate D2E/DX2                !
 ! D61   D(24,9,11,12)          35.8348         estimate D2E/DX2                !
 ! D62   D(24,9,11,14)         157.6341         estimate D2E/DX2                !
 ! D63   D(24,9,11,26)         -82.7172         estimate D2E/DX2                !
 ! D64   D(9,11,12,13)         175.1884         estimate D2E/DX2                !
 ! D65   D(9,11,12,27)          48.7381         estimate D2E/DX2                !
 ! D66   D(9,11,12,28)         -70.8216         estimate D2E/DX2                !
 ! D67   D(14,11,12,13)         60.0005         estimate D2E/DX2                !
 ! D68   D(14,11,12,27)        -66.4498         estimate D2E/DX2                !
 ! D69   D(14,11,12,28)        173.9906         estimate D2E/DX2                !
 ! D70   D(26,11,12,13)        -64.9359         estimate D2E/DX2                !
 ! D71   D(26,11,12,27)        168.6138         estimate D2E/DX2                !
 ! D72   D(26,11,12,28)         49.0542         estimate D2E/DX2                !
 ! D73   D(9,11,14,7)          -28.6368         estimate D2E/DX2                !
 ! D74   D(12,11,14,7)          88.9778         estimate D2E/DX2                !
 ! D75   D(26,11,14,7)        -147.6797         estimate D2E/DX2                !
 ! D76   D(11,12,13,29)        157.1926         estimate D2E/DX2                !
 ! D77   D(27,12,13,29)        -74.9263         estimate D2E/DX2                !
 ! D78   D(28,12,13,29)         41.8764         estimate D2E/DX2                !
 ! D79   D(3,15,16,17)           0.0074         estimate D2E/DX2                !
 ! D80   D(6,15,16,17)         179.9813         estimate D2E/DX2                !
 ! D81   D(15,16,17,18)       -179.9988         estimate D2E/DX2                !
 ! D82   D(15,16,17,19)         -0.0047         estimate D2E/DX2                !
 ! D83   D(16,17,18,30)       -130.8673         estimate D2E/DX2                !
 ! D84   D(16,17,18,31)         49.1239         estimate D2E/DX2                !
 ! D85   D(19,17,18,30)         49.1385         estimate D2E/DX2                !
 ! D86   D(19,17,18,31)       -130.8703         estimate D2E/DX2                !
 ! D87   D(16,17,19,2)           0.0011         estimate D2E/DX2                !
 ! D88   D(16,17,19,32)        179.9978         estimate D2E/DX2                !
 ! D89   D(18,17,19,2)         179.9953         estimate D2E/DX2                !
 ! D90   D(18,17,19,32)         -0.008          estimate D2E/DX2                !
 --------------------------------------------------------------------------------
 Trust Radius=3.00D-01 FncErr=1.00D-07 GrdErr=1.00D-07
 Number of steps in this run=    192 maximum allowed number of steps=    192.
 GradGradGradGradGradGradGradGradGradGradGradGradGradGradGradGradGradGrad

                          Input orientation:                          
 ---------------------------------------------------------------------
 Center     Atomic      Atomic             Coordinates (Angstroms)
 Number     Number       Type             X           Y           Z
 ---------------------------------------------------------------------
      1          8           0        4.459900    0.544100   -1.785100
      2          6           0        3.610700    0.534100   -0.865100
      3          6           0        2.464900   -0.216200   -1.058100
      4          7           0        2.012200   -0.987400   -2.057800
      5          6           0        0.818800   -1.467600   -1.672000
      6          7           0        0.525500   -1.004900   -0.447300
      7          6           0       -0.697500   -1.342400    0.251200
      8          6           0       -1.174600   -0.250100    1.173800
      9          6           0       -2.691200   -0.361100    0.955700
     10          8           0       -3.207100   -1.422500    1.667500
     11          6           0       -2.717900   -0.703100   -0.516300
     12          6           0       -2.570900    0.573600   -1.295700
     13          8           0       -2.478900    0.301600   -2.678600
     14          8           0       -1.679800   -1.577400   -0.669700
     15          6           0        1.535800   -0.225600   -0.048800
     16          7           0        1.700400    0.458100    1.100100
     17          6           0        2.822300    1.180000    1.264200
     18          7           0        3.061900    1.925400    2.450300
     19          7           0        3.766400    1.209600    0.277500
     20          1           0        0.211600   -2.130800   -2.290600
     21          1           0       -0.573700   -2.256000    0.874200
     22          1           0       -0.923600   -0.432600    2.223600
     23          1           0       -0.854600    0.764700    0.820500
     24          1           0       -3.192500    0.605400    1.158700
     25          1           0       -3.473600   -2.188700    1.103800
     26          1           0       -3.685000   -1.171100   -0.789200
     27          1           0       -1.749100    1.208300   -0.958300
     28          1           0       -3.525600    1.147400   -1.174300
     29          1           0       -2.739400    1.077600   -3.220100
     30          1           0        3.358700    2.920000    2.390500
     31          1           0        2.951700    1.513400    3.399200
     32          1           0        4.634400    1.774200    0.416200
 ---------------------------------------------------------------------
                    Distance matrix (angstroms):
                    1          2          3          4          5
     1  O    0.000000
     2  C    1.252055   0.000000
     3  C    2.255351   1.383133   0.000000
     4  N    2.900188   2.508525   1.341300   0.000000
     5  C    4.161411   3.528824   2.156970   1.342996   0.000000
     6  N    4.434931   3.472972   2.180916   2.191870   1.341643
     7  C    5.856977   4.829903   3.603244   3.577706   2.452252
     8  C    6.413535   5.260340   4.269483   4.598102   3.681647
     9  C    7.711654   6.620471   5.537306   5.620979   4.522085
    10  O    8.635442   7.531583   6.407467   6.427151   5.230886
    11  C    7.395010   6.457825   5.233740   4.983061   3.798467
    12  C    7.047874   6.196705   5.102893   4.901257   3.974691
    13  O    7.000292   6.358150   5.228317   4.713480   3.875324
    14  O    6.590963   5.699649   4.379755   3.988206   2.694376
    15  C    3.486766   2.355568   1.371861   2.200767   2.165971
    16  N    3.993321   2.741721   2.386832   3.486979   3.488564
    17  C    3.519138   2.360652   2.733164   4.048403   4.432276
    18  N    4.669155   3.637138   4.153520   5.468934   5.791140
    19  N    2.275555   1.336442   2.347474   3.654812   4.433542
    20  H    5.045659   4.548365   3.203453   2.145628   1.091417
    21  H    6.344255   5.321562   4.138557   4.110091   3.007285
    22  H    6.782750   5.570857   4.722109   5.220834   4.391228
    23  H    5.922983   4.778423   3.938322   4.424139   3.741121
    24  H    8.199326   7.098196   6.131509   6.322324   5.329233
    25  H    8.874365   7.840760   6.620449   6.444598   5.162339
    26  H    8.382907   7.492710   6.229399   5.839622   4.599072
    27  H    6.298924   5.402841   4.449377   4.491923   3.776760
    28  H    8.031517   7.169276   6.144835   6.000431   5.095070
    29  H    7.360283   6.794497   5.782119   5.309696   4.640630
    30  H    4.928811   4.044126   4.746311   6.071920   6.496617
    31  H    5.485542   4.424654   4.805831   6.075814   6.257211
    32  H    2.527710   2.056098   3.292717   4.541260   5.424818
                    6          7          8          9         10
     6  N    0.000000
     7  C    1.448288   0.000000
     8  C    2.467393   1.507294   0.000000
     9  C    3.567919   2.331118   1.536217   0.000000
    10  O    4.310345   2.882779   2.397773   1.378181   0.000000
    11  C    3.258142   2.253836   2.333114   1.511443   2.350710
    12  C    3.577588   3.094121   2.954076   2.440684   3.629011
    13  O    3.963844   3.802611   4.104456   3.700321   4.731953
    14  O    2.289228   1.366819   2.327111   2.268092   2.796273
    15  C    1.336719   2.514930   2.973486   4.346828   5.183952
    16  N    2.432120   3.116465   2.961858   4.469686   5.286034
    17  C    3.602542   4.447208   4.246006   5.733136   6.579462
    18  N    4.839015   5.444965   4.930536   6.368679   7.149935
    19  N    3.991588   5.141964   5.229489   6.680393   7.582200
    20  H    2.182645   2.812256   4.178594   4.700697   5.277855
    21  H    2.125995   1.112709   2.115296   2.842727   2.873820
    22  H    3.092107   2.183854   1.094709   2.176486   2.550200
    23  H    2.577494   2.188299   1.121178   2.158426   3.321974
    24  H    4.358420   3.292796   2.191809   1.107535   2.090806
    25  H    4.449730   3.024877   3.008068   1.993541   0.987847
    26  H    4.227627   3.168112   3.317185   2.165275   2.515346
    27  H    3.214526   3.012445   2.646286   2.648389   3.992706
    28  H    4.644603   4.028561   3.604689   2.740200   3.844692
    29  H    4.762856   4.698476   4.849510   4.416954   5.509798
    30  H    5.611147   6.260784   5.663983   7.030331   7.905047
    31  H    5.198446   5.601978   5.008861   6.428589   7.039113
    32  H    5.035086   6.178153   6.198083   7.649509   8.560010
                   11         12         13         14         15
    11  C    0.000000
    12  C    1.503009   0.000000
    13  O    2.396265   1.412395   0.000000
    14  O    1.365864   2.410962   2.864416   0.000000
    15  C    4.305871   4.365600   4.828209   3.543016   0.000000
    16  N    4.845875   4.898694   5.636454   4.324489   1.347038
    17  C    6.116377   6.000618   6.664832   5.622466   2.314036
    18  N    7.008268   6.898428   7.722876   6.669912   3.633357
    19  N    6.806959   6.560551   6.968986   6.190771   2.672423
    20  H    3.710585   4.005735   3.647726   2.551659   3.226292
    21  H    2.990415   4.087042   4.774253   2.016825   3.069926
    22  H    3.286295   4.013914   5.195149   3.202123   3.354892
    23  H    2.722748   2.731393   3.885423   2.896046   2.729540
    24  H    2.177853   2.532089   3.914893   3.224271   4.950297
    25  H    2.324395   3.768656   4.636547   2.595517   5.502394
    26  H    1.108504   2.131136   2.682043   2.049436   5.357137
    27  H    2.188010   1.091805   2.077052   2.801467   3.697814
    28  H    2.123604   1.120463   2.018385   3.329585   5.363735
    29  H    3.237575   1.996428   0.981457   3.830968   5.480220
    30  H    7.648621   7.365719   8.162681   7.414709   4.378122
    31  H    7.237982   7.309201   8.240117   6.896360   4.113101
    32  H    7.814275   7.502559   7.895909   7.230596   3.717089
                   16         17         18         19         20
    16  N    0.000000
    17  C    1.344146   0.000000
    18  N    2.414475   1.421219   0.000000
    19  N    2.347292   1.365935   2.393690   0.000000
    20  H    4.518382   5.514867   6.859526   5.512714   0.000000
    21  H    3.548084   4.846753   5.760710   5.585956   3.263178
    22  H    2.990146   4.189594   4.636353   5.336687   4.954853
    23  H    2.588475   3.726786   4.398005   4.674016   4.381740
    24  H    4.895467   6.043105   6.521361   7.040445   5.565281
    25  H    5.811699   7.142284   7.839110   8.040449   5.010589
    26  H    5.935173   7.217276   8.099588   7.894868   4.284707
    27  H    4.086424   5.083110   5.939571   5.652251   4.094992
    28  H    5.741002   6.800234   7.558979   7.435379   5.095035
    29  H    6.225731   7.145064   8.156426   7.387561   4.457152
    30  H    3.236672   2.140999   1.039661   2.748901   7.571494
    31  H    2.822281   2.164746   1.040336   3.240531   7.291239
    32  H    3.287582   2.087075   2.575496   1.044718   6.491298
                   21         22         23         24         25
    21  H    0.000000
    22  H    2.295234   0.000000
    23  H    3.034208   1.845800   0.000000
    24  H    3.889301   2.712815   2.367601   0.000000
    25  H    2.909754   3.292467   3.957523   2.808741   0.000000
    26  H    3.691083   4.153032   3.788089   2.681944   2.159548
    27  H    4.091576   3.674029   2.039863   2.632220   4.331947
    28  H    4.949060   4.562075   3.355582   2.418183   4.040050
    29  H    5.706701   5.933945   4.469544   4.427433   5.468444
    30  H    6.674872   5.441128   4.986192   7.056410   8.627557
    31  H    5.745646   4.492984   4.658129   6.602689   7.762660
    32  H    6.601256   6.247241   5.595683   7.948444   9.050803
                   26         27         28         29         30
    26  H    0.000000
    27  H    3.072108   0.000000
    28  H    2.355664   1.790619   0.000000
    29  H    3.443848   2.472552   2.192779   0.000000
    30  H    8.744215   6.343028   7.952578   8.488822   0.000000
    31  H    8.294276   6.417041   7.937649   8.740347   1.778102
    32  H    8.907311   6.554278   8.337156   8.251112   2.614982
                   31         32
    31  H    0.000000
    32  H    3.434790   0.000000
 Stoichiometry    C10H13N5O4
 Framework group  C1[X(C10H13N5O4)]
 Deg. of freedom    90
 Full point group                 C1      NOp   1
 Largest Abelian subgroup         C1      NOp   1
 Largest concise Abelian subgroup C1      NOp   1
                         Standard orientation:                         
 ---------------------------------------------------------------------
 Center     Atomic      Atomic             Coordinates (Angstroms)
 Number     Number       Type             X           Y           Z
 ---------------------------------------------------------------------
      1          8           0       -4.053964   -1.795010    0.104773
      2          6           0       -3.264457   -0.824061    0.065069
      3          6           0       -1.966385   -1.069337   -0.344694
      4          7           0       -1.303541   -2.167693   -0.736282
      5          6           0       -0.046751   -1.786867   -1.017507
      6          7           0        0.078659   -0.467990   -0.805749
      7          6           0        1.317682    0.250743   -1.019719
      8          6           0        1.484048    1.433288   -0.100020
      9          6           0        2.991107    1.340345    0.182998
     10          8           0        3.715330    1.844765   -0.875513
     11          6           0        3.157545   -0.161565    0.215062
     12          6           0        2.742918   -0.649026    1.575026
     13          8           0        2.773934   -2.060167    1.625819
     14          8           0        2.363946   -0.602275   -0.805505
     15          6           0       -1.103070   -0.004034   -0.387327
     16          7           0       -1.471522    1.246968   -0.050061
     17          6           0       -2.738486    1.460161    0.345005
     18          7           0       -3.195885    2.753850    0.715162
     19          7           0       -3.622069    0.419850    0.398049
     20          1           0        0.725035   -2.476813   -1.363214
     21          1           0        1.389515    0.641270   -2.059165
     22          1           0        1.241539    2.388017   -0.577586
     23          1           0        0.946591    1.285000    0.872702
     24          1           0        3.239823    1.798892    1.159987
     25          1           0        4.178718    1.153082   -1.407197
     26          1           0        4.218326   -0.438727    0.051647
     27          1           0        1.780950   -0.258596    1.912990
     28          1           0        3.528261   -0.313838    2.300506
     29          1           0        2.864184   -2.389164    2.546077
     30          1           0       -3.717844    2.888137    1.604219
     31          1           0       -3.029248    3.593936    0.124580
     32          1           0       -4.604219    0.597533    0.706664
 ---------------------------------------------------------------------
 Rotational constants (GHZ):      0.6794805      0.2501133      0.2103280
 Standard basis: 3-21G (6D, 7F)
 There are   197 symmetry adapted basis functions of A   symmetry.
 Integral buffers will be    131072 words long.
 Raffenetti 1 integral format.
 Two-electron integral symmetry is turned on.
   197 basis functions,   324 primitive gaussians,   197 cartesian basis functions
    70 alpha electrons       70 beta electrons
       nuclear repulsion energy      1531.8771514029 Hartrees.
 NAtoms=   32 NActive=   32 NUniq=   32 SFac= 1.00D+00 NAtFMM=   60 NAOKFM=F Big=F
 One-electron integrals computed using PRISM.
 NBasis=   197 RedAO= T  NBF=   197
 NBsUse=   197 1.00D-06 NBFU=   197
 Harris functional with IExCor=  205 diagonalized for initial guess.
 ExpMin= 1.83D-01 ExpMax= 3.22D+02 ExpMxC= 3.22D+02 IAcc=1 IRadAn=         1 AccDes= 0.00D+00
 HarFok:  IExCor=  205 AccDes= 0.00D+00 IRadAn=         1 IDoV= 1
 ScaDFX=  1.000000  1.000000  1.000000  1.000000
 FoFCou: FMM=F IPFlag=           0 FMFlag=      100000 FMFlg1=           0
         NFxFlg=           0 DoJE=T BraDBF=F KetDBF=T FulRan=T
         Omega=  0.000000  0.000000  1.000000  0.000000  0.000000 ICntrl=     500 IOpCl=  0
         NMat0=    1 NMatS0=    1 NMatT0=    0 NMatD0=    1 NMtDS0=    0 NMtDT0=    0
         I1Cent=           4 NGrid=           0.
 Petite list used in FoFCou.
 Initial guess orbital symmetries:
       Occupied  (A) (A) (A) (A) (A) (A) (A) (A) (A) (A) (A) (A)
                 (A) (A) (A) (A) (A) (A) (A) (A) (A) (A) (A) (A)
                 (A) (A) (A) (A) (A) (A) (A) (A) (A) (A) (A) (A)
                 (A) (A) (A) (A) (A) (A) (A) (A) (A) (A) (A) (A)
                 (A) (A) (A) (A) (A) (A) (A) (A) (A) (A) (A) (A)
                 (A) (A) (A) (A) (A) (A) (A) (A) (A) (A)
       Virtual   (A) (A) (A) (A) (A) (A) (A) (A) (A) (A) (A) (A)
                 (A) (A) (A) (A) (A) (A) (A) (A) (A) (A) (A) (A)
                 (A) (A) (A) (A) (A) (A) (A) (A) (A) (A) (A) (A)
                 (A) (A) (A) (A) (A) (A) (A) (A) (A) (A) (A) (A)
                 (A) (A) (A) (A) (A) (A) (A) (A) (A) (A) (A) (A)
                 (A) (A) (A) (A) (A) (A) (A) (A) (A) (A) (A) (A)
                 (A) (A) (A) (A) (A) (A) (A) (A) (A) (A) (A) (A)
                 (A) (A) (A) (A) (A) (A) (A) (A) (A) (A) (A) (A)
                 (A) (A) (A) (A) (A) (A) (A) (A) (A) (A) (A) (A)
                 (A) (A) (A) (A) (A) (A) (A) (A) (A) (A) (A) (A)
                 (A) (A) (A) (A) (A) (A) (A)
 The electronic state of the initial guess is 1-A.
 Requested convergence on RMS density matrix=1.00D-08 within 128 cycles.
 Requested convergence on MAX density matrix=1.00D-06.
 Requested convergence on             energy=1.00D-06.
 No special actions if energy rises.
 Integral accuracy reduced to 1.0D-05 until final iterations.
 Initial convergence to 1.0D-05 achieved.  Increase integral accuracy.
 SCF Done:  E(RHF) =  -952.518718916     A.U. after   16 cycles
             Convg  =    0.2543D-08             -V/T =  2.0018

 **********************************************************************

            Population analysis using the SCF density.

 **********************************************************************

 Orbital symmetries:
       Occupied  (A) (A) (A) (A) (A) (A) (A) (A) (A) (A) (A) (A)
                 (A) (A) (A) (A) (A) (A) (A) (A) (A) (A) (A) (A)
                 (A) (A) (A) (A) (A) (A) (A) (A) (A) (A) (A) (A)
                 (A) (A) (A) (A) (A) (A) (A) (A) (A) (A) (A) (A)
                 (A) (A) (A) (A) (A) (A) (A) (A) (A) (A) (A) (A)
                 (A) (A) (A) (A) (A) (A) (A) (A) (A) (A)
       Virtual   (A) (A) (A) (A) (A) (A) (A) (A) (A) (A) (A) (A)
                 (A) (A) (A) (A) (A) (A) (A) (A) (A) (A) (A) (A)
                 (A) (A) (A) (A) (A) (A) (A) (A) (A) (A) (A) (A)
                 (A) (A) (A) (A) (A) (A) (A) (A) (A) (A) (A) (A)
                 (A) (A) (A) (A) (A) (A) (A) (A) (A) (A) (A) (A)
                 (A) (A) (A) (A) (A) (A) (A) (A) (A) (A) (A) (A)
                 (A) (A) (A) (A) (A) (A) (A) (A) (A) (A) (A) (A)
                 (A) (A) (A) (A) (A) (A) (A) (A) (A) (A) (A) (A)
                 (A) (A) (A) (A) (A) (A) (A) (A) (A) (A) (A) (A)
                 (A) (A) (A) (A) (A) (A) (A) (A) (A) (A) (A) (A)
                 (A) (A) (A) (A) (A) (A) (A)
 The electronic state is 1-A.
 Alpha  occ. eigenvalues --  -20.49120 -20.46152 -20.44795 -20.38445 -15.56823
 Alpha  occ. eigenvalues --  -15.56209 -15.52109 -15.49768 -15.46764 -11.35378
 Alpha  occ. eigenvalues --  -11.29447 -11.28848 -11.25521 -11.24921 -11.24712
 Alpha  occ. eigenvalues --  -11.23880 -11.23823 -11.18473 -11.18181  -1.47946
 Alpha  occ. eigenvalues --   -1.40261  -1.38358  -1.37022  -1.35761  -1.31861
 Alpha  occ. eigenvalues --   -1.21822  -1.19969  -1.19396  -1.09304  -1.05901
 Alpha  occ. eigenvalues --   -1.03043  -0.94195  -0.91192  -0.89273  -0.85080
 Alpha  occ. eigenvalues --   -0.83810  -0.79889  -0.78453  -0.75545  -0.74940
 Alpha  occ. eigenvalues --   -0.72292  -0.70851  -0.70539  -0.70057  -0.67099
 Alpha  occ. eigenvalues --   -0.66865  -0.64885  -0.64165  -0.63148  -0.61457
 Alpha  occ. eigenvalues --   -0.60367  -0.58724  -0.58092  -0.56269  -0.55902
 Alpha  occ. eigenvalues --   -0.53958  -0.52341  -0.51142  -0.50441  -0.47412
 Alpha  occ. eigenvalues --   -0.46594  -0.44312  -0.43966  -0.43406  -0.42453
 Alpha  occ. eigenvalues --   -0.41204  -0.40319  -0.38489  -0.38035  -0.27873
 Alpha virt. eigenvalues --    0.12091   0.17006   0.22063   0.22461   0.22824
 Alpha virt. eigenvalues --    0.23734   0.25054   0.25534   0.27607   0.29099
 Alpha virt. eigenvalues --    0.30968   0.31402   0.32625   0.33759   0.34769
 Alpha virt. eigenvalues --    0.35077   0.36506   0.39500   0.40246   0.40799
 Alpha virt. eigenvalues --    0.42098   0.43162   0.43757   0.46803   0.47941
 Alpha virt. eigenvalues --    0.48496   0.50706   0.53335   0.53858   0.55912
 Alpha virt. eigenvalues --    0.56517   0.58492   0.63201   0.63438   0.68829
 Alpha virt. eigenvalues --    0.71301   0.77041   0.85519   0.89126   0.91610
 Alpha virt. eigenvalues --    0.93277   0.95524   0.96557   0.97705   0.98117
 Alpha virt. eigenvalues --    0.99572   1.00013   1.00443   1.01919   1.02138
 Alpha virt. eigenvalues --    1.03558   1.05703   1.05997   1.06676   1.08104
 Alpha virt. eigenvalues --    1.08808   1.09093   1.10542   1.12671   1.14297
 Alpha virt. eigenvalues --    1.15420   1.17439   1.19398   1.21445   1.23378
 Alpha virt. eigenvalues --    1.24785   1.27730   1.28844   1.29609   1.30632
 Alpha virt. eigenvalues --    1.31689   1.33008   1.33796   1.34376   1.36329
 Alpha virt. eigenvalues --    1.37024   1.40115   1.41203   1.42400   1.42925
 Alpha virt. eigenvalues --    1.44291   1.45999   1.51505   1.54647   1.55934
 Alpha virt. eigenvalues --    1.58007   1.61098   1.64366   1.65158   1.68338
 Alpha virt. eigenvalues --    1.70635   1.73714   1.75940   1.78776   1.80156
 Alpha virt. eigenvalues --    1.87636   1.90150   1.94763   1.96721   1.98285
 Alpha virt. eigenvalues --    1.98533   1.98967   2.01722   2.05281   2.07034
 Alpha virt. eigenvalues --    2.09919   2.11509   2.12791   2.19094   2.19738
 Alpha virt. eigenvalues --    2.21356   2.29469   2.33175   2.41116   2.42013
 Alpha virt. eigenvalues --    2.52855   2.58992   2.68286   2.87494   3.09340
 Alpha virt. eigenvalues --    3.23937   3.30488   3.45661   3.57996   3.59543
 Alpha virt. eigenvalues --    3.80075   3.93165
          Condensed to atoms (all electrons):
              1          2          3          4          5          6
     1  O    8.239205   0.614677  -0.134589  -0.004483  -0.000028  -0.000010
     2  C    0.614677   4.564392  -0.020774  -0.049756   0.002270   0.004555
     3  C   -0.134589  -0.020774   6.095846   0.297796  -0.215164  -0.034001
     4  N   -0.004483  -0.049756   0.297796   7.136858   0.528169  -0.124928
     5  C   -0.000028   0.002270  -0.215164   0.528169   4.862703   0.199772
     6  N   -0.000010   0.004555  -0.034001  -0.124928   0.199772   7.979812
     7  C    0.000000   0.000000   0.001937   0.001763  -0.030499   0.115221
     8  C    0.000000  -0.000002   0.000163  -0.000089   0.002447  -0.042444
     9  C    0.000000   0.000000   0.000007   0.000001  -0.000014   0.002440
    10  O    0.000000   0.000000   0.000000   0.000000   0.000001   0.000007
    11  C    0.000000   0.000000  -0.000002  -0.000002  -0.000079   0.005740
    12  C    0.000000   0.000000  -0.000012  -0.000002   0.000097   0.001438
    13  O    0.000000   0.000000   0.000000   0.000000   0.000114  -0.000033
    14  O    0.000000   0.000000  -0.000078   0.000065   0.004026  -0.053212
    15  C    0.005198  -0.064082   0.109685  -0.093809  -0.128377   0.134519
    16  N    0.000013  -0.013567  -0.050601   0.004440   0.002106  -0.037896
    17  C    0.000370  -0.067857   0.015093   0.000474   0.000095   0.000431
    18  N   -0.000003   0.000102  -0.000049   0.000000   0.000000  -0.000003
    19  N   -0.078257   0.063260  -0.166768   0.000914  -0.000131   0.000099
    20  H    0.000000  -0.000008   0.002721  -0.021606   0.378517  -0.033976
    21  H    0.000000   0.000000  -0.000103   0.000019  -0.000677  -0.051377
    22  H    0.000000   0.000000   0.000001   0.000000  -0.000043   0.001214
    23  H    0.000000  -0.000002  -0.000137  -0.000019   0.000079  -0.003587
    24  H    0.000000   0.000000   0.000000   0.000000   0.000000  -0.000037
    25  H    0.000000   0.000000   0.000000   0.000000  -0.000001   0.000024
    26  H    0.000000   0.000000   0.000000   0.000000  -0.000008  -0.000101
    27  H    0.000000   0.000000  -0.000013  -0.000004  -0.000150   0.000458
    28  H    0.000000   0.000000   0.000000   0.000000   0.000006  -0.000002
    29  H    0.000000   0.000000   0.000000   0.000000  -0.000001   0.000002
    30  H    0.000000   0.000000   0.000012   0.000000   0.000000   0.000000
    31  H    0.000000  -0.000019   0.000022   0.000000   0.000000   0.000000
    32  H    0.000687  -0.019421   0.005908   0.000003   0.000002   0.000002
              7          8          9         10         11         12
     1  O    0.000000   0.000000   0.000000   0.000000   0.000000   0.000000
     2  C    0.000000  -0.000002   0.000000   0.000000   0.000000   0.000000
     3  C    0.001937   0.000163   0.000007   0.000000  -0.000002  -0.000012
     4  N    0.001763  -0.000089   0.000001   0.000000  -0.000002  -0.000002
     5  C   -0.030499   0.002447  -0.000014   0.000001  -0.000079   0.000097
     6  N    0.115221  -0.042444   0.002440   0.000007   0.005740   0.001438
     7  C    4.925303   0.193761  -0.116931   0.011392  -0.143281   0.004533
     8  C    0.193761   5.798695   0.149818  -0.066629  -0.120096  -0.002573
     9  C   -0.116931   0.149818   5.439071   0.199413   0.146947  -0.105051
    10  O    0.011392  -0.066629   0.199413   8.357448  -0.041071   0.002905
    11  C   -0.143281  -0.120096   0.146947  -0.041071   5.586450   0.119323
    12  C    0.004533  -0.002573  -0.105051   0.002905   0.119323   5.225271
    13  O    0.000165  -0.000067   0.001628  -0.000001  -0.038472   0.211973
    14  O    0.256244  -0.057953  -0.065926  -0.000474   0.206683  -0.051300
    15  C   -0.023166  -0.008770   0.000254   0.000000   0.000006  -0.000009
    16  N    0.001388  -0.001027   0.000227   0.000000  -0.000004   0.000002
    17  C    0.000019  -0.000070   0.000000   0.000000   0.000000   0.000000
    18  N    0.000000  -0.000005   0.000000   0.000000   0.000000   0.000000
    19  N    0.000001   0.000002   0.000000   0.000000   0.000000   0.000000
    20  H   -0.000528   0.000034   0.000019   0.000000  -0.000059   0.000012
    21  H    0.394500  -0.059879   0.001972   0.002376   0.003916  -0.000505
    22  H   -0.035145   0.382962  -0.035094   0.000637   0.005164  -0.000024
    23  H   -0.039059   0.361180  -0.040809   0.001631   0.003188  -0.001726
    24  H    0.006872  -0.059955   0.391016  -0.029765  -0.047702   0.003611
    25  H    0.001795   0.004201  -0.059991   0.277725  -0.004733   0.000906
    26  H    0.002283   0.005472  -0.037530  -0.001606   0.393041  -0.054069
    27  H   -0.000061  -0.000306   0.001177  -0.000012  -0.055054   0.365554
    28  H    0.000029   0.000381   0.004029  -0.000017  -0.052740   0.352885
    29  H   -0.000010   0.000008  -0.000190   0.000000   0.005198  -0.043255
    30  H    0.000000   0.000000   0.000000   0.000000   0.000000   0.000000
    31  H    0.000000   0.000000   0.000000   0.000000   0.000000   0.000000
    32  H    0.000000   0.000000   0.000000   0.000000   0.000000   0.000000
             13         14         15         16         17         18
     1  O    0.000000   0.000000   0.005198   0.000013   0.000370  -0.000003
     2  C    0.000000   0.000000  -0.064082  -0.013567  -0.067857   0.000102
     3  C    0.000000  -0.000078   0.109685  -0.050601   0.015093  -0.000049
     4  N    0.000000   0.000065  -0.093809   0.004440   0.000474   0.000000
     5  C    0.000114   0.004026  -0.128377   0.002106   0.000095   0.000000
     6  N   -0.000033  -0.053212   0.134519  -0.037896   0.000431  -0.000003
     7  C    0.000165   0.256244  -0.023166   0.001388   0.000019   0.000000
     8  C   -0.000067  -0.057953  -0.008770  -0.001027  -0.000070  -0.000005
     9  C    0.001628  -0.065926   0.000254   0.000227   0.000000   0.000000
    10  O   -0.000001  -0.000474   0.000000   0.000000   0.000000   0.000000
    11  C   -0.038472   0.206683   0.000006  -0.000004   0.000000   0.000000
    12  C    0.211973  -0.051300  -0.000009   0.000002   0.000000   0.000000
    13  O    8.313659   0.000618  -0.000002   0.000000   0.000000   0.000000
    14  O    0.000618   8.498896   0.001221   0.000004   0.000000   0.000000
    15  C   -0.000002   0.001221   5.094633   0.245422  -0.127957   0.000843
    16  N    0.000000   0.000004   0.245422   7.274446   0.530680  -0.054539
    17  C    0.000000   0.000000  -0.127957   0.530680   4.186224   0.327730
    18  N    0.000000   0.000000   0.000843  -0.054539   0.327730   7.047059
    19  N    0.000000   0.000000   0.005860  -0.087415   0.180138  -0.070791
    20  H    0.000089   0.002900   0.001326  -0.000011   0.000002   0.000000
    21  H    0.000001  -0.039932   0.001251  -0.000004   0.000006   0.000000
    22  H    0.000000   0.001765   0.000046   0.000799   0.000024   0.000001
    23  H   -0.000004   0.001594   0.000799   0.002396   0.000127  -0.000015
    24  H    0.000001   0.002324  -0.000004   0.000000   0.000000   0.000000
    25  H   -0.000004   0.002968   0.000000   0.000000   0.000000   0.000000
    26  H    0.002094  -0.029468   0.000003   0.000000   0.000000   0.000000
    27  H   -0.036202  -0.000381   0.000261  -0.000045  -0.000001   0.000000
    28  H   -0.040182   0.001946   0.000000   0.000000   0.000000   0.000000
    29  H    0.270298  -0.000061   0.000000   0.000000   0.000000   0.000000
    30  H    0.000000   0.000000  -0.000074   0.000988  -0.034764   0.334849
    31  H    0.000000   0.000000  -0.000014   0.000220  -0.026317   0.334084
    32  H    0.000000   0.000000  -0.000777   0.001890  -0.019013   0.001440
             19         20         21         22         23         24
     1  O   -0.078257   0.000000   0.000000   0.000000   0.000000   0.000000
     2  C    0.063260  -0.000008   0.000000   0.000000  -0.000002   0.000000
     3  C   -0.166768   0.002721  -0.000103   0.000001  -0.000137   0.000000
     4  N    0.000914  -0.021606   0.000019   0.000000  -0.000019   0.000000
     5  C   -0.000131   0.378517  -0.000677  -0.000043   0.000079   0.000000
     6  N    0.000099  -0.033976  -0.051377   0.001214  -0.003587  -0.000037
     7  C    0.000001  -0.000528   0.394500  -0.035145  -0.039059   0.006872
     8  C    0.000002   0.000034  -0.059879   0.382962   0.361180  -0.059955
     9  C    0.000000   0.000019   0.001972  -0.035094  -0.040809   0.391016
    10  O    0.000000   0.000000   0.002376   0.000637   0.001631  -0.029765
    11  C    0.000000  -0.000059   0.003916   0.005164   0.003188  -0.047702
    12  C    0.000000   0.000012  -0.000505  -0.000024  -0.001726   0.003611
    13  O    0.000000   0.000089   0.000001   0.000000  -0.000004   0.000001
    14  O    0.000000   0.002900  -0.039932   0.001765   0.001594   0.002324
    15  C    0.005860   0.001326   0.001251   0.000046   0.000799  -0.000004
    16  N   -0.087415  -0.000011  -0.000004   0.000799   0.002396   0.000000
    17  C    0.180138   0.000002   0.000006   0.000024   0.000127   0.000000
    18  N   -0.070791   0.000000   0.000000   0.000001  -0.000015   0.000000
    19  N    7.907880   0.000000   0.000000   0.000000   0.000000   0.000000
    20  H    0.000000   0.363735  -0.000019  -0.000001  -0.000004   0.000000
    21  H    0.000000  -0.000019   0.495506  -0.001341   0.002936  -0.000042
    22  H    0.000000  -0.000001  -0.001341   0.416720  -0.007617  -0.000383
    23  H    0.000000  -0.000004   0.002936  -0.007617   0.473379   0.001100
    24  H    0.000000   0.000000  -0.000042  -0.000383   0.001100   0.510492
    25  H    0.000000   0.000000  -0.000617  -0.000170  -0.000110   0.003133
    26  H    0.000000  -0.000010   0.000085  -0.000026  -0.000092  -0.001228
    27  H    0.000000  -0.000002   0.000026   0.000156   0.002021  -0.000444
    28  H    0.000000   0.000000   0.000010  -0.000010   0.000233   0.001792
    29  H    0.000000  -0.000002   0.000000   0.000000  -0.000001  -0.000002
    30  H    0.000840   0.000000   0.000000   0.000000   0.000000   0.000000
    31  H    0.001707   0.000000   0.000000   0.000000   0.000001   0.000000
    32  H    0.316229   0.000000   0.000000   0.000000   0.000000   0.000000
             25         26         27         28         29         30
     1  O    0.000000   0.000000   0.000000   0.000000   0.000000   0.000000
     2  C    0.000000   0.000000   0.000000   0.000000   0.000000   0.000000
     3  C    0.000000   0.000000  -0.000013   0.000000   0.000000   0.000012
     4  N    0.000000   0.000000  -0.000004   0.000000   0.000000   0.000000
     5  C   -0.000001  -0.000008  -0.000150   0.000006  -0.000001   0.000000
     6  N    0.000024  -0.000101   0.000458  -0.000002   0.000002   0.000000
     7  C    0.001795   0.002283  -0.000061   0.000029  -0.000010   0.000000
     8  C    0.004201   0.005472  -0.000306   0.000381   0.000008   0.000000
     9  C   -0.059991  -0.037530   0.001177   0.004029  -0.000190   0.000000
    10  O    0.277725  -0.001606  -0.000012  -0.000017   0.000000   0.000000
    11  C   -0.004733   0.393041  -0.055054  -0.052740   0.005198   0.000000
    12  C    0.000906  -0.054069   0.365554   0.352885  -0.043255   0.000000
    13  O   -0.000004   0.002094  -0.036202  -0.040182   0.270298   0.000000
    14  O    0.002968  -0.029468  -0.000381   0.001946  -0.000061   0.000000
    15  C    0.000000   0.000003   0.000261   0.000000   0.000000  -0.000074
    16  N    0.000000   0.000000  -0.000045   0.000000   0.000000   0.000988
    17  C    0.000000   0.000000  -0.000001   0.000000   0.000000  -0.034764
    18  N    0.000000   0.000000   0.000000   0.000000   0.000000   0.334849
    19  N    0.000000   0.000000   0.000000   0.000000   0.000000   0.000840
    20  H    0.000000  -0.000010  -0.000002   0.000000  -0.000002   0.000000
    21  H   -0.000617   0.000085   0.000026   0.000010   0.000000   0.000000
    22  H   -0.000170  -0.000026   0.000156  -0.000010   0.000000   0.000000
    23  H   -0.000110  -0.000092   0.002021   0.000233  -0.000001   0.000000
    24  H    0.003133  -0.001228  -0.000444   0.001792  -0.000002   0.000000
    25  H    0.375139   0.001063  -0.000005  -0.000027   0.000000   0.000000
    26  H    0.001063   0.476934   0.002933  -0.002075  -0.000006   0.000000
    27  H   -0.000005   0.002933   0.554840  -0.038495   0.000310   0.000000
    28  H   -0.000027  -0.002075  -0.038495   0.606733  -0.006861   0.000000
    29  H    0.000000  -0.000006   0.000310  -0.006861   0.392948   0.000000
    30  H    0.000000   0.000000   0.000000   0.000000   0.000000   0.367865
    31  H    0.000000   0.000000   0.000000   0.000000   0.000000  -0.019688
    32  H    0.000000   0.000000   0.000000   0.000000   0.000000   0.001189
             31         32
     1  O    0.000000   0.000687
     2  C   -0.000019  -0.019421
     3  C    0.000022   0.005908
     4  N    0.000000   0.000003
     5  C    0.000000   0.000002
     6  N    0.000000   0.000002
     7  C    0.000000   0.000000
     8  C    0.000000   0.000000
     9  C    0.000000   0.000000
    10  O    0.000000   0.000000
    11  C    0.000000   0.000000
    12  C    0.000000   0.000000
    13  O    0.000000   0.000000
    14  O    0.000000   0.000000
    15  C   -0.000014  -0.000777
    16  N    0.000220   0.001890
    17  C   -0.026317  -0.019013
    18  N    0.334084   0.001440
    19  N    0.001707   0.316229
    20  H    0.000000   0.000000
    21  H    0.000000   0.000000
    22  H    0.000000   0.000000
    23  H    0.000001   0.000000
    24  H    0.000000   0.000000
    25  H    0.000000   0.000000
    26  H    0.000000   0.000000
    27  H    0.000000   0.000000
    28  H    0.000000   0.000000
    29  H    0.000000   0.000000
    30  H   -0.019688   0.001189
    31  H    0.338542   0.000035
    32  H    0.000035   0.310122
 Mulliken atomic charges:
              1
     1  O   -0.642779
     2  C    0.986232
     3  C    0.093100
     4  N   -0.675801
     5  C    0.394769
     6  N   -1.064126
     7  C    0.471473
     8  C   -0.479261
     9  C    0.123519
    10  O   -0.713959
    11  C    0.027637
    12  C   -0.029984
    13  O   -0.685674
    14  O   -0.682467
    15  C    0.845714
    16  N   -0.819913
    17  C    1.034566
    18  N   -0.920704
    19  N   -1.073568
    20  H    0.306872
    21  H    0.251894
    22  H    0.270364
    23  H    0.242517
    24  H    0.219221
    25  H    0.398703
    26  H    0.242313
    27  H    0.203440
    28  H    0.172364
    29  H    0.381625
    30  H    0.348784
    31  H    0.371426
    32  H    0.401703
 Sum of Mulliken atomic charges =   0.00000
 Mulliken charges with hydrogens summed into heavy atoms:
              1
     1  O   -0.642779
     2  C    0.986232
     3  C    0.093100
     4  N   -0.675801
     5  C    0.701641
     6  N   -1.064126
     7  C    0.723367
     8  C    0.033621
     9  C    0.342740
    10  O   -0.315256
    11  C    0.269950
    12  C    0.345821
    13  O   -0.304049
    14  O   -0.682467
    15  C    0.845714
    16  N   -0.819913
    17  C    1.034566
    18  N   -0.200493
    19  N   -0.671865
 Sum of Mulliken charges with hydrogens summed into heavy atoms =   0.00000
 Electronic spatial extent (au):  <R**2>=           5197.8467
 Charge=              0.0000 electrons
 Dipole moment (field-independent basis, Debye):
    X=              2.7916    Y=              7.7559    Z=              3.6468  Tot=              9.0136
 Quadrupole moment (field-independent basis, Debye-Ang):
   XX=           -101.6086   YY=           -123.0667   ZZ=            -97.1245
   XY=            -34.1624   XZ=             -2.2298   YZ=              0.2255
 Traceless Quadrupole moment (field-independent basis, Debye-Ang):
   XX=              5.6580   YY=            -15.8001   ZZ=             10.1421
   XY=            -34.1624   XZ=             -2.2298   YZ=              0.2255
 Octapole moment (field-independent basis, Debye-Ang**2):
  XXX=             41.0163  YYY=             62.3238  ZZZ=             29.6988  XYY=            -10.8738
  XXY=            100.7710  XXZ=             51.5956  XZZ=             25.7396  YZZ=             -7.9668
  YYZ=             21.7069  XYZ=            -13.8093
 Hexadecapole moment (field-independent basis, Debye-Ang**3):
 XXXX=          -4236.2658 YYYY=          -1395.7369 ZZZZ=           -463.7839 XXXY=           -561.7879
 XXXZ=           -142.4626 YYYX=           -319.2163 YYYZ=            -14.0133 ZZZX=             15.9789
 ZZZY=            -64.2005 XXYY=          -1122.1751 XXZZ=           -693.4078 YYZZ=           -279.6139
 XXYZ=             46.7058 YYXZ=             -0.5084 ZZXY=            -81.2868
 N-N= 1.531877151403D+03 E-N=-5.298044733178D+03  KE= 9.508338778006D+02
 Calling FoFJK, ICntrl=      2127 FMM=F ISym2X=0 I1Cent= 0 IOpClX= 0 NMat=1 NMatS=1 NMatT=0.
 ***** Axes restored to original set *****
 -------------------------------------------------------------------
 Center     Atomic                   Forces (Hartrees/Bohr)
 Number     Number              X              Y              Z
 -------------------------------------------------------------------
      1        8          -0.003621401    0.017600080    0.038110250
      2        6           0.069820169   -0.018825676   -0.117975678
      3        6          -0.057144989   -0.008666037    0.046029465
      4        7          -0.029253278   -0.032177178   -0.029090244
      5        6           0.050809293   -0.002338216   -0.057166314
      6        7          -0.032833979   -0.005526125    0.027072248
      7        6           0.048877172   -0.026880096    0.052796869
      8        6          -0.010519966    0.038474092    0.012620891
      9        6           0.006393866    0.040437793   -0.015303811
     10        8          -0.022998462   -0.046612772    0.023888424
     11        6          -0.064524675    0.043848886   -0.009586645
     12        6          -0.031530426    0.035986845   -0.009207475
     13        8           0.004318891   -0.002528928   -0.028738610
     14        8           0.005273632   -0.046003774   -0.040367893
     15        6           0.036758084    0.016642308    0.004176046
     16        7           0.037682294    0.041403465    0.040081093
     17        6          -0.056633215   -0.023536624    0.023639159
     18        7           0.010383970    0.002921523   -0.002348036
     19        7           0.018527991    0.041991914    0.047707802
     20        1           0.007572410    0.016456385    0.018716827
     21        1           0.005252401    0.013445056   -0.018220075
     22        1           0.001315423    0.006391216   -0.014471939
     23        1          -0.001434695   -0.028250851    0.016691949
     24        1           0.002263015   -0.020032673    0.002944067
     25        1           0.006860060    0.018993249    0.012808963
     26        1           0.019224046    0.003916121    0.000227500
     27        1          -0.004239366   -0.008238977   -0.000549695
     28        1           0.019179392   -0.008075547    0.012251854
     29        1           0.006528939   -0.012829837    0.010089004
     30        1          -0.008998339   -0.035845497    0.000677762
     31        1          -0.004229800    0.011984916   -0.038958831
     32        1          -0.029078456   -0.024125040   -0.008544927
 -------------------------------------------------------------------
 Cartesian Forces:  Max     0.117975678 RMS     0.030187209

 GradGradGradGradGradGradGradGradGradGradGradGradGradGradGradGradGradGrad
 Berny optimization.
 Internal  Forces:  Max     0.067292867 RMS     0.016025599
 Search for a local minimum.
 Step number   1 out of a maximum of  192
 All quantities printed in internal units (Hartrees-Bohrs-Radians)
 Mixed Optimization -- RFO/linear search
 Second derivative matrix not updated -- first step.
 ITU=  0
     Eigenvalues ---    0.00699   0.00726   0.01053   0.01386   0.01411
     Eigenvalues ---    0.01411   0.01528   0.01831   0.01944   0.01980
     Eigenvalues ---    0.02256   0.02338   0.02387   0.02422   0.02430
     Eigenvalues ---    0.02456   0.02459   0.02472   0.02489   0.03212
     Eigenvalues ---    0.04134   0.04963   0.04964   0.05274   0.05449
     Eigenvalues ---    0.05697   0.05881   0.06157   0.06163   0.06362
     Eigenvalues ---    0.07024   0.07783   0.08024   0.08512   0.11006
     Eigenvalues ---    0.11614   0.13920   0.15316   0.16000   0.16000
     Eigenvalues ---    0.16000   0.16000   0.16000   0.16000   0.16369
     Eigenvalues ---    0.17799   0.20316   0.22028   0.23487   0.23681
     Eigenvalues ---    0.25000   0.25000   0.25000   0.25000   0.25000
     Eigenvalues ---    0.25000   0.27611   0.28046   0.30776   0.31445
     Eigenvalues ---    0.31517   0.32064   0.32315   0.32759   0.32862
     Eigenvalues ---    0.34274   0.34605   0.34649   0.38470   0.40617
     Eigenvalues ---    0.41246   0.41344   0.42091   0.42277   0.43627
     Eigenvalues ---    0.46837   0.47856   0.49176   0.49436   0.49890
     Eigenvalues ---    0.49897   0.50524   0.51103   0.53075   0.53869
     Eigenvalues ---    0.55484   0.56815   0.57255   0.57471   0.82482
 RFO step:  Lambda=-1.00375809D-01 EMin= 6.98953796D-03
 Linear search not attempted -- first point.
 Maximum step size (   0.300) exceeded in Quadratic search.
    -- Step size scaled by   0.652
 Iteration  1 RMS(Cart)=  0.05928023 RMS(Int)=  0.00100131
 Iteration  2 RMS(Cart)=  0.00145063 RMS(Int)=  0.00015485
 Iteration  3 RMS(Cart)=  0.00000134 RMS(Int)=  0.00015485
 Iteration  4 RMS(Cart)=  0.00000000 RMS(Int)=  0.00015485
 Variable       Old X    -DE/DX   Delta X   Delta X   Delta X     New X
                                 (Linear)    (Quad)   (Total)
    R1        2.36604  -0.03032   0.00000  -0.02137  -0.02137   2.34467
    R2        2.61374   0.04126   0.00000   0.04970   0.04989   2.66363
    R3        2.52551   0.04306   0.00000   0.04286   0.04314   2.56865
    R4        2.53469   0.02895   0.00000   0.02760   0.02752   2.56222
    R5        2.59244   0.00930   0.00000   0.01344   0.01328   2.60572
    R6        2.53789  -0.03553   0.00000  -0.03680  -0.03680   2.50109
    R7        2.53534   0.04176   0.00000   0.04007   0.04014   2.57548
    R8        2.06248  -0.02482   0.00000  -0.03622  -0.03622   2.02626
    R9        2.73687   0.01156   0.00000   0.01555   0.01555   2.75241
   R10        2.52603   0.01797   0.00000   0.01880   0.01885   2.54488
   R11        2.84837   0.02839   0.00000   0.04319   0.04321   2.89158
   R12        2.58291   0.05067   0.00000   0.05844   0.05852   2.64143
   R13        2.10271  -0.02066   0.00000  -0.03181  -0.03181   2.07091
   R14        2.90303   0.01650   0.00000   0.01937   0.01930   2.92233
   R15        2.06870  -0.01464   0.00000  -0.02155  -0.02155   2.04715
   R16        2.11872  -0.03124   0.00000  -0.04911  -0.04911   2.06961
   R17        2.60438   0.04627   0.00000   0.05073   0.05073   2.65511
   R18        2.85621   0.02856   0.00000   0.04244   0.04241   2.89862
   R19        2.09294  -0.01797   0.00000  -0.02731  -0.02731   2.06563
   R20        1.86676  -0.02389   0.00000  -0.02600  -0.02600   1.84076
   R21        2.84028   0.01148   0.00000   0.01778   0.01778   2.85806
   R22        2.58111   0.05868   0.00000   0.06589   0.06591   2.64702
   R23        2.09477  -0.01848   0.00000  -0.02816  -0.02816   2.06661
   R24        2.66904   0.02192   0.00000   0.02664   0.02664   2.69568
   R25        2.06321  -0.00815   0.00000  -0.01191  -0.01191   2.05131
   R26        2.11737  -0.01915   0.00000  -0.03005  -0.03005   2.08731
   R27        1.85469  -0.01744   0.00000  -0.01861  -0.01861   1.83608
   R28        2.54553   0.01376   0.00000   0.01199   0.01171   2.55724
   R29        2.54007  -0.06729   0.00000  -0.06949  -0.06967   2.47040
   R30        2.68571  -0.04537   0.00000  -0.05655  -0.05655   2.62916
   R31        2.58124   0.00977   0.00000   0.00859   0.00869   2.58993
   R32        1.96467  -0.03690   0.00000  -0.04683  -0.04683   1.91784
   R33        1.96595  -0.03983   0.00000  -0.05065  -0.05065   1.91530
   R34        1.97423  -0.03833   0.00000  -0.04935  -0.04935   1.92488
    A1        2.05292   0.05748   0.00000   0.10181   0.10154   2.15447
    A2        2.14738  -0.01175   0.00000  -0.02703  -0.02730   2.12008
    A3        2.08288  -0.04574   0.00000  -0.07478  -0.07426   2.00862
    A4        2.33990  -0.01353   0.00000  -0.03163  -0.03163   2.30827
    A5        2.05116  -0.00176   0.00000   0.00574   0.00592   2.05708
    A6        1.89212   0.01529   0.00000   0.02589   0.02571   1.91783
    A7        1.86648  -0.01045   0.00000  -0.02477  -0.02489   1.84159
    A8        1.91047   0.01731   0.00000   0.03142   0.03146   1.94193
    A9        2.15175  -0.00078   0.00000   0.00402   0.00399   2.15574
   A10        2.22097  -0.01653   0.00000  -0.03544  -0.03547   2.18550
   A11        2.14658   0.00633   0.00000   0.01049   0.01044   2.15702
   A12        1.88385  -0.00966   0.00000  -0.01538  -0.01530   1.86855
   A13        2.25275   0.00332   0.00000   0.00489   0.00484   2.25760
   A14        1.97537   0.00865   0.00000   0.01708   0.01705   1.99242
   A15        1.89864   0.00413   0.00000   0.00530   0.00533   1.90397
   A16        1.94702  -0.00885   0.00000  -0.02401  -0.02422   1.92280
   A17        1.88548  -0.01096   0.00000  -0.02101  -0.02090   1.86457
   A18        1.86243   0.00649   0.00000   0.02422   0.02431   1.88673
   A19        1.89233   0.00007   0.00000  -0.00228  -0.00219   1.89015
   A20        1.74490   0.01335   0.00000   0.01627   0.01612   1.76102
   A21        1.97533  -0.00562   0.00000  -0.00673  -0.00681   1.96852
   A22        1.95271  -0.00177   0.00000  -0.00325  -0.00344   1.94927
   A23        1.92886  -0.00146   0.00000   0.00335   0.00340   1.93226
   A24        1.87804  -0.00084   0.00000   0.01145   0.01149   1.88953
   A25        1.96887  -0.00180   0.00000  -0.01590  -0.01600   1.95287
   A26        1.93037  -0.00815   0.00000  -0.01971  -0.02002   1.91035
   A27        1.74371   0.00678   0.00000   0.01019   0.01021   1.75392
   A28        1.93668   0.00220   0.00000   0.00992   0.00977   1.94644
   A29        1.89877   0.00993   0.00000   0.02972   0.02991   1.92867
   A30        1.99103  -0.00455   0.00000  -0.02313  -0.02322   1.96781
   A31        1.94762  -0.00474   0.00000  -0.00227  -0.00226   1.94536
   A32        1.98626  -0.00191   0.00000  -0.00479  -0.00479   1.98147
   A33        1.88714   0.01791   0.00000   0.04783   0.04786   1.93500
   A34        1.81398  -0.00862   0.00000  -0.01783  -0.01782   1.79616
   A35        1.92912   0.00005   0.00000   0.00205   0.00197   1.93109
   A36        1.99451  -0.00286   0.00000  -0.00749  -0.00749   1.98702
   A37        1.89261  -0.00673   0.00000  -0.01564  -0.01600   1.87660
   A38        1.94463   0.00113   0.00000  -0.00619  -0.00634   1.93829
   A39        1.92892  -0.01446   0.00000  -0.02923  -0.02938   1.89954
   A40        1.99015  -0.00159   0.00000  -0.01362  -0.01388   1.97627
   A41        1.87076  -0.00171   0.00000  -0.00422  -0.00395   1.86681
   A42        1.94497   0.00501   0.00000   0.00562   0.00498   1.94994
   A43        1.83403   0.01554   0.00000   0.04972   0.04973   1.88376
   A44        1.88615  -0.00118   0.00000  -0.00237  -0.00269   1.88346
   A45        1.95051  -0.00103   0.00000  -0.00258  -0.00258   1.94792
   A46        1.93959  -0.00124   0.00000   0.01098   0.01104   1.95063
   A47        1.87186  -0.01249   0.00000  -0.01715  -0.01699   1.85488
   A48        2.14274   0.02205   0.00000   0.03849   0.03814   2.18088
   A49        2.26859  -0.00956   0.00000  -0.02134  -0.02116   2.24743
   A50        2.06998  -0.01275   0.00000  -0.03661  -0.03730   2.03269
   A51        2.12267  -0.00729   0.00000  -0.00939  -0.00935   2.11332
   A52        2.09479   0.01997   0.00000   0.02881   0.02873   2.12352
   A53        2.06573  -0.01268   0.00000  -0.01942  -0.01938   2.04634
   A54        2.09656   0.00248   0.00000   0.00622   0.00613   2.10269
   A55        2.13607  -0.00777   0.00000  -0.01945  -0.01954   2.11654
   A56        2.05055   0.00528   0.00000   0.01323   0.01314   2.06370
   A57        2.12482   0.01823   0.00000   0.03835   0.03874   2.16356
   A58        2.07540  -0.01403   0.00000  -0.03147  -0.03168   2.04373
   A59        2.08296  -0.00420   0.00000  -0.00687  -0.00708   2.07589
    D1        0.00032  -0.00004   0.00000  -0.00021  -0.00043  -0.00010
    D2       -3.14151  -0.00031   0.00000  -0.00164  -0.00186   3.13982
    D3       -3.14132   0.00100   0.00000   0.00530   0.00525  -3.13607
    D4        0.00004   0.00074   0.00000   0.00387   0.00382   0.00386
    D5        3.14154   0.00025   0.00000   0.00137   0.00109  -3.14055
    D6        0.00001  -0.00071   0.00000  -0.00374  -0.00392  -0.00391
    D7        0.00000  -0.00085   0.00000  -0.00446  -0.00446  -0.00446
    D8       -3.14153  -0.00182   0.00000  -0.00957  -0.00947   3.13218
    D9        3.14133  -0.00041   0.00000  -0.00219  -0.00217   3.13916
   D10       -0.00004  -0.00017   0.00000  -0.00086  -0.00082  -0.00086
   D11       -3.14134   0.00024   0.00000   0.00121   0.00123  -3.14011
   D12       -0.00011   0.00026   0.00000   0.00138   0.00134   0.00123
   D13        0.00008   0.00003   0.00000   0.00013   0.00009   0.00017
   D14        3.14131   0.00006   0.00000   0.00029   0.00020   3.14151
   D15       -0.00001   0.00024   0.00000   0.00129   0.00126   0.00125
   D16       -3.14156  -0.00085   0.00000  -0.00442  -0.00455   3.13707
   D17       -3.14082   0.00041   0.00000   0.00223   0.00224  -3.13858
   D18        0.00006  -0.00022   0.00000  -0.00122  -0.00123  -0.00117
   D19        0.00073   0.00156   0.00000   0.00822   0.00817   0.00890
   D20       -3.14158   0.00093   0.00000   0.00477   0.00470  -3.13688
   D21       -2.60715   0.00607   0.00000   0.02194   0.02176  -2.58539
   D22       -0.51129   0.00064   0.00000   0.01002   0.00999  -0.50130
   D23        1.57535  -0.00205   0.00000  -0.00414  -0.00402   1.57133
   D24        0.53532   0.00684   0.00000   0.02617   0.02605   0.56137
   D25        2.63118   0.00141   0.00000   0.01426   0.01428   2.64546
   D26       -1.56537  -0.00128   0.00000   0.00010   0.00027  -1.56509
   D27       -0.00009   0.00011   0.00000   0.00066   0.00066   0.00058
   D28       -3.14128   0.00007   0.00000   0.00046   0.00053  -3.14075
   D29        3.14073  -0.00056   0.00000  -0.00306  -0.00307   3.13766
   D30       -0.00046  -0.00060   0.00000  -0.00326  -0.00320  -0.00366
   D31        2.47908   0.00082   0.00000   0.00164   0.00154   2.48063
   D32       -1.75262   0.00441   0.00000   0.01206   0.01188  -1.74075
   D33        0.49507  -0.00446   0.00000  -0.01859  -0.01868   0.47639
   D34        0.37572  -0.00228   0.00000  -0.00131  -0.00127   0.37445
   D35        2.42720   0.00131   0.00000   0.00911   0.00906   2.43627
   D36       -1.60829  -0.00756   0.00000  -0.02154  -0.02149  -1.62978
   D37       -1.65592  -0.00024   0.00000  -0.00063  -0.00046  -1.65637
   D38        0.39556   0.00335   0.00000   0.00979   0.00988   0.40544
   D39        2.64326  -0.00552   0.00000  -0.02087  -0.02068   2.62258
   D40       -2.08031  -0.00254   0.00000  -0.00626  -0.00629  -2.08660
   D41        0.07039   0.00376   0.00000   0.00481   0.00473   0.07512
   D42        2.08249   0.00569   0.00000   0.02110   0.02119   2.10368
   D43        1.36937   0.00526   0.00000   0.02175   0.02168   1.39105
   D44       -0.62937  -0.00633   0.00000  -0.00964  -0.00958  -0.63895
   D45       -2.68599  -0.00535   0.00000  -0.01637  -0.01647  -2.70246
   D46       -0.71640   0.00522   0.00000   0.01946   0.01941  -0.69699
   D47       -2.71514  -0.00636   0.00000  -0.01194  -0.01185  -2.72699
   D48        1.51143  -0.00538   0.00000  -0.01867  -0.01874   1.49268
   D49       -2.87310   0.00893   0.00000   0.02950   0.02952  -2.84358
   D50        1.41135  -0.00265   0.00000  -0.00189  -0.00175   1.40960
   D51       -0.64527  -0.00167   0.00000  -0.00862  -0.00864  -0.65391
   D52       -1.88093  -0.00540   0.00000  -0.01250  -0.01212  -1.89306
   D53        0.01778   0.00369   0.00000   0.00510   0.00507   0.02285
   D54        2.20458   0.00193   0.00000   0.00858   0.00824   2.21282
   D55       -1.42303  -0.00137   0.00000  -0.00705  -0.00685  -1.42988
   D56        0.70277  -0.00048   0.00000  -0.00170  -0.00171   0.70106
   D57        2.79103  -0.00406   0.00000  -0.01817  -0.01823   2.77280
   D58        2.83738   0.00101   0.00000  -0.00046  -0.00037   2.83701
   D59       -1.32001   0.00190   0.00000   0.00490   0.00477  -1.31523
   D60        0.76826  -0.00168   0.00000  -0.01158  -0.01175   0.75651
   D61        0.62544   0.00288   0.00000   0.00889   0.00898   0.63442
   D62        2.75123   0.00378   0.00000   0.01424   0.01413   2.76536
   D63       -1.44369   0.00020   0.00000  -0.00223  -0.00240  -1.44609
   D64        3.05761  -0.00739   0.00000  -0.02528  -0.02506   3.03256
   D65        0.85064  -0.00089   0.00000   0.00222   0.00217   0.85281
   D66       -1.23607   0.00273   0.00000   0.01638   0.01644  -1.21963
   D67        1.04721  -0.00676   0.00000  -0.03011  -0.02992   1.01729
   D68       -1.15977  -0.00026   0.00000  -0.00261  -0.00269  -1.16246
   D69        3.03671   0.00335   0.00000   0.01155   0.01158   3.04828
   D70       -1.13334  -0.00091   0.00000  -0.00433  -0.00430  -1.13765
   D71        2.94287   0.00559   0.00000   0.02317   0.02292   2.96579
   D72        0.85616   0.00921   0.00000   0.03733   0.03719   0.89335
   D73       -0.49981   0.00008   0.00000   0.00080   0.00079  -0.49902
   D74        1.55296   0.01481   0.00000   0.04354   0.04346   1.59642
   D75       -2.57750   0.00452   0.00000   0.01193   0.01177  -2.56572
   D76        2.74353   0.00426   0.00000   0.02177   0.02158   2.76511
   D77       -1.30771  -0.00535   0.00000  -0.01498  -0.01525  -1.32296
   D78        0.73088   0.00471   0.00000   0.01367   0.01413   0.74501
   D79        0.00013  -0.00116   0.00000  -0.00607  -0.00610  -0.00597
   D80        3.14127  -0.00112   0.00000  -0.00586  -0.00596   3.13531
   D81       -3.14157   0.00103   0.00000   0.00536   0.00536  -3.13622
   D82       -0.00008   0.00105   0.00000   0.00548   0.00551   0.00542
   D83       -2.28407  -0.00139   0.00000  -0.00790  -0.00790  -2.29196
   D84        0.85737  -0.00578   0.00000  -0.03290  -0.03289   0.82448
   D85        0.85763  -0.00141   0.00000  -0.00803  -0.00804   0.84959
   D86       -2.28412  -0.00580   0.00000  -0.03303  -0.03304  -2.31715
   D87        0.00002  -0.00006   0.00000  -0.00030  -0.00031  -0.00030
   D88        3.14155   0.00092   0.00000   0.00483   0.00478  -3.13685
   D89        3.14151  -0.00004   0.00000  -0.00018  -0.00017   3.14134
   D90       -0.00014   0.00094   0.00000   0.00495   0.00493   0.00479
         Item               Value     Threshold  Converged?
 Maximum Force            0.067293     0.000450     NO 
 RMS     Force            0.016026     0.000300     NO 
 Maximum Displacement     0.246691     0.001800     NO 
 RMS     Displacement     0.059012     0.001200     NO 
 Predicted change in Energy=-4.945217D-02
 GradGradGradGradGradGradGradGradGradGradGradGradGradGradGradGradGradGrad

                          Input orientation:                          
 ---------------------------------------------------------------------
 Center     Atomic      Atomic             Coordinates (Angstroms)
 Number     Number       Type             X           Y           Z
 ---------------------------------------------------------------------
      1          8           0        4.571429    0.615590   -1.753353
      2          6           0        3.678422    0.545796   -0.894798
      3          6           0        2.493483   -0.198288   -1.065204
      4          7           0        2.035422   -0.961722   -2.087809
      5          6           0        0.860167   -1.420753   -1.688089
      6          7           0        0.552773   -0.971012   -0.438809
      7          6           0       -0.676939   -1.315405    0.261645
      8          6           0       -1.194054   -0.218756    1.195102
      9          6           0       -2.719877   -0.345007    0.977459
     10          8           0       -3.212872   -1.421912    1.733322
     11          6           0       -2.762061   -0.675580   -0.519787
     12          6           0       -2.648960    0.581867   -1.352521
     13          8           0       -2.546020    0.216011   -2.727453
     14          8           0       -1.684846   -1.557190   -0.676152
     15          6           0        1.578060   -0.197373   -0.034022
     16          7           0        1.728142    0.466886    1.135367
     17          6           0        2.834538    1.147873    1.280708
     18          7           0        3.090934    1.861270    2.447334
     19          7           0        3.787641    1.190663    0.296773
     20          1           0        0.239569   -2.059175   -2.285579
     21          1           0       -0.532171   -2.226168    0.853677
[...]
 Alpha virt. eigenvalues --    2.23583   2.25752   2.26587   2.27327   2.30910
 Alpha virt. eigenvalues --    2.34253   2.36905   2.37170   2.37970   2.39023
 Alpha virt. eigenvalues --    2.41049   2.41936   2.42753   2.43722   2.47454
 Alpha virt. eigenvalues --    2.47817   2.49483   2.51332   2.52908   2.54123
 Alpha virt. eigenvalues --    2.55095   2.57331   2.58646   2.60438   2.62060
 Alpha virt. eigenvalues --    2.65339   2.68670   2.70851   2.71755   2.72335
 Alpha virt. eigenvalues --    2.73456   2.74785   2.76177   2.77858   2.81122
 Alpha virt. eigenvalues --    2.84946   2.88162   2.91257   2.92045   2.95489
 Alpha virt. eigenvalues --    3.00476   3.01445   3.03579   3.07471   3.20524
 Alpha virt. eigenvalues --    3.31416   3.44850   3.77894   3.81420   3.82348
 Alpha virt. eigenvalues --    3.95732   4.02014   4.06391   4.11509   4.19640
 Alpha virt. eigenvalues --    4.23269   4.28323   4.30371   4.35182   4.37460
 Alpha virt. eigenvalues --    4.43722   4.51181   4.55832   4.63669   4.69039
 Alpha virt. eigenvalues --    4.85210
          Condensed to atoms (all electrons):
              1          2          3          4          5          6
     1  O    8.039908   0.627565  -0.080251  -0.000909   0.000103  -0.000041
     2  C    0.627565   4.435583   0.304743  -0.059569   0.005777   0.004066
     3  C   -0.080251   0.304743   5.183043   0.391719  -0.102698  -0.071425
     4  N   -0.000909  -0.059569   0.391719   6.826397   0.503129  -0.063732
     5  C    0.000103   0.005777  -0.102698   0.503129   4.807939   0.340457
     6  N   -0.000041   0.004066  -0.071425  -0.063732   0.340457   7.105191
     7  C    0.000000   0.000044   0.007974   0.004944  -0.028589   0.209609
     8  C    0.000000   0.000007  -0.000241  -0.000103   0.002316  -0.051958
     9  C    0.000000   0.000000   0.000018   0.000002   0.000137   0.001731
    10  O    0.000000   0.000000   0.000000   0.000000   0.000001   0.000026
    11  C    0.000000   0.000000   0.000018   0.000000   0.000326   0.000517
    12  C    0.000000   0.000000   0.000011  -0.000107  -0.000106   0.002193
    13  O    0.000000   0.000000  -0.000004   0.000045  -0.008663  -0.000148
    14  O    0.000000   0.000000  -0.000235   0.000328   0.006434  -0.054597
    15  C    0.003811  -0.043032   0.397022  -0.085412  -0.083641   0.294335
    16  N    0.000025  -0.019431  -0.055193   0.007052   0.003744  -0.069752
    17  C    0.002776  -0.021997  -0.014309   0.000547   0.000160   0.000294
    18  N   -0.000048   0.000195   0.000696   0.000003   0.000002  -0.000111
    19  N   -0.098670   0.194140  -0.098868   0.003058  -0.000203   0.000395
    20  H    0.000000  -0.000175   0.003913  -0.035792   0.359968  -0.050502
    21  H    0.000000   0.000006  -0.000384  -0.000125   0.001722  -0.060514
    22  H    0.000000   0.000000   0.000028   0.000001  -0.000093   0.001610
    23  H    0.000000   0.000004  -0.000257  -0.000137   0.000709  -0.003686
    24  H    0.000000   0.000000   0.000000   0.000000  -0.000015  -0.000064
    25  H    0.000000   0.000000   0.000000   0.000000  -0.000003   0.000143
    26  H    0.000000   0.000000   0.000000   0.000000   0.000005  -0.000190
    27  H    0.000000  -0.000001  -0.000151   0.000004   0.004029   0.001228
    28  H    0.000000   0.000000  -0.000001   0.000001  -0.000041  -0.000002
    29  H    0.000000   0.000000   0.000001  -0.000020   0.000970   0.000012
    30  H   -0.000003   0.000007  -0.000017   0.000000   0.000000   0.000001
    31  H    0.000001   0.000026   0.000070  -0.000001   0.000000  -0.000025
    32  H    0.010570  -0.004577   0.009227  -0.000058   0.000005   0.000022
              7          8          9         10         11         12
     1  O    0.000000   0.000000   0.000000   0.000000   0.000000   0.000000
     2  C    0.000044   0.000007   0.000000   0.000000   0.000000   0.000000
     3  C    0.007974  -0.000241   0.000018   0.000000   0.000018   0.000011
     4  N    0.004944  -0.000103   0.000002   0.000000   0.000000  -0.000107
     5  C   -0.028589   0.002316   0.000137   0.000001   0.000326  -0.000106
     6  N    0.209609  -0.051958   0.001731   0.000026   0.000517   0.002193
     7  C    4.706738   0.321993  -0.049996   0.002632  -0.059899   0.001094
     8  C    0.321993   5.322754   0.304803  -0.052824  -0.052469  -0.005979
     9  C   -0.049996   0.304803   4.858613   0.265317   0.317312  -0.036263
    10  O    0.002632  -0.052824   0.265317   8.239351  -0.032436   0.003056
    11  C   -0.059899  -0.052469   0.317312  -0.032436   4.978356   0.303717
    12  C    0.001094  -0.005979  -0.036263   0.003056   0.303717   4.968692
    13  O    0.000231  -0.000132   0.002218  -0.000010  -0.042332   0.232028
    14  O    0.269127  -0.058618  -0.036547  -0.003164   0.233051  -0.048828
    15  C   -0.026360  -0.003417   0.000099  -0.000001  -0.000078   0.000002
    16  N    0.002473   0.002049   0.000171   0.000000  -0.000017   0.000001
    17  C   -0.000090   0.000063   0.000000   0.000000   0.000000   0.000000
    18  N   -0.000011  -0.000003   0.000000   0.000000   0.000000   0.000000
    19  N    0.000018  -0.000001   0.000000   0.000000   0.000000   0.000000
    20  H   -0.000601   0.000092   0.000235   0.000000  -0.003514  -0.002692
    21  H    0.388860  -0.047930   0.000534   0.000724   0.005402  -0.000324
    22  H   -0.022452   0.355145  -0.026050   0.001203   0.005053  -0.000031
    23  H   -0.031915   0.345873  -0.021004   0.003150   0.002502  -0.000514
    24  H    0.006340  -0.047265   0.378077  -0.040682  -0.045905   0.001062
    25  H    0.004709  -0.006075  -0.034658   0.236326  -0.007062   0.000694
    26  H    0.003726   0.007113  -0.039336   0.002248   0.374480  -0.047530
    27  H    0.000337   0.002498  -0.003947  -0.000012  -0.032628   0.354073
    28  H    0.000052  -0.000145   0.002274  -0.000055  -0.033929   0.347654
    29  H    0.000002   0.000016  -0.000219   0.000001   0.005373  -0.018480
    30  H    0.000000   0.000000   0.000000   0.000000   0.000000   0.000000
    31  H    0.000004   0.000004   0.000000   0.000000   0.000000   0.000000
    32  H    0.000000   0.000000   0.000000   0.000000   0.000000   0.000000
             13         14         15         16         17         18
     1  O    0.000000   0.000000   0.003811   0.000025   0.002776  -0.000048
     2  C    0.000000   0.000000  -0.043032  -0.019431  -0.021997   0.000195
     3  C   -0.000004  -0.000235   0.397022  -0.055193  -0.014309   0.000696
     4  N    0.000045   0.000328  -0.085412   0.007052   0.000547   0.000003
     5  C   -0.008663   0.006434  -0.083641   0.003744   0.000160   0.000002
     6  N   -0.000148  -0.054597   0.294335  -0.069752   0.000294  -0.000111
     7  C    0.000231   0.269127  -0.026360   0.002473  -0.000090  -0.000011
     8  C   -0.000132  -0.058618  -0.003417   0.002049   0.000063  -0.000003
     9  C    0.002218  -0.036547   0.000099   0.000171   0.000000   0.000000
    10  O   -0.000010  -0.003164  -0.000001   0.000000   0.000000   0.000000
    11  C   -0.042332   0.233051  -0.000078  -0.000017   0.000000   0.000000
    12  C    0.232028  -0.048828   0.000002   0.000001   0.000000   0.000000
    13  O    8.236495   0.002474  -0.000010   0.000000   0.000000   0.000000
    14  O    0.002474   8.246060   0.001915   0.000041   0.000000   0.000000
    15  C   -0.000010   0.001915   4.761723   0.339754  -0.061760   0.000428
    16  N    0.000000   0.000041   0.339754   6.959850   0.563560  -0.085040
    17  C    0.000000   0.000000  -0.061760   0.563560   4.246864   0.334884
    18  N    0.000000   0.000000   0.000428  -0.085040   0.334884   7.002112
    19  N    0.000000   0.000000  -0.012631  -0.070332   0.297547  -0.087375
    20  H    0.024971   0.005482   0.003916  -0.000068   0.000003   0.000000
    21  H   -0.000001  -0.039546   0.000346   0.003652   0.000098  -0.000007
    22  H    0.000000   0.002378   0.000469   0.001467   0.000022  -0.000007
    23  H   -0.000008   0.001181   0.001722   0.000068   0.000022   0.000000
    24  H    0.000011   0.003530  -0.000004   0.000001   0.000000   0.000000
    25  H   -0.000003   0.008382  -0.000003   0.000001   0.000000   0.000000
    26  H    0.001972  -0.040424   0.000008   0.000000   0.000000   0.000000
    27  H   -0.039437  -0.003913   0.000207   0.000000   0.000001   0.000000
    28  H   -0.035883   0.003331   0.000000   0.000000   0.000000   0.000000
    29  H    0.232214  -0.000114  -0.000001   0.000000   0.000000   0.000000
    30  H    0.000000   0.000000  -0.000047   0.003752  -0.019241   0.305684
    31  H    0.000000   0.000000   0.000381   0.005381  -0.015025   0.303354
    32  H    0.000000   0.000000  -0.000103   0.004053  -0.019059  -0.002880
             19         20         21         22         23         24
     1  O   -0.098670   0.000000   0.000000   0.000000   0.000000   0.000000
     2  C    0.194140  -0.000175   0.000006   0.000000   0.000004   0.000000
     3  C   -0.098868   0.003913  -0.000384   0.000028  -0.000257   0.000000
     4  N    0.003058  -0.035792  -0.000125   0.000001  -0.000137   0.000000
     5  C   -0.000203   0.359968   0.001722  -0.000093   0.000709  -0.000015
     6  N    0.000395  -0.050502  -0.060514   0.001610  -0.003686  -0.000064
     7  C    0.000018  -0.000601   0.388860  -0.022452  -0.031915   0.006340
     8  C   -0.000001   0.000092  -0.047930   0.355145   0.345873  -0.047265
     9  C    0.000000   0.000235   0.000534  -0.026050  -0.021004   0.378077
    10  O    0.000000   0.000000   0.000724   0.001203   0.003150  -0.040682
    11  C    0.000000  -0.003514   0.005402   0.005053   0.002502  -0.045905
    12  C    0.000000  -0.002692  -0.000324  -0.000031  -0.000514   0.001062
    13  O    0.000000   0.024971  -0.000001   0.000000  -0.000008   0.000011
    14  O    0.000000   0.005482  -0.039546   0.002378   0.001181   0.003530
    15  C   -0.012631   0.003916   0.000346   0.000469   0.001722  -0.000004
    16  N   -0.070332  -0.000068   0.003652   0.001467   0.000068   0.000001
    17  C    0.297547   0.000003   0.000098   0.000022   0.000022   0.000000
    18  N   -0.087375   0.000000  -0.000007  -0.000007   0.000000   0.000000
    19  N    7.298840   0.000002   0.000001   0.000001  -0.000002   0.000000
    20  H    0.000002   0.500187   0.000023  -0.000007  -0.000005   0.000001
    21  H    0.000001   0.000023   0.581507  -0.003449   0.004395  -0.000156
    22  H    0.000001  -0.000007  -0.003449   0.527288  -0.023212   0.000463
    23  H   -0.000002  -0.000005   0.004395  -0.023212   0.552914  -0.002660
    24  H    0.000000   0.000001  -0.000156   0.000463  -0.002660   0.587137
    25  H    0.000000  -0.000001  -0.000767  -0.000189  -0.000070   0.007584
    26  H    0.000000  -0.000050  -0.000129  -0.000130  -0.000166   0.000150
    27  H    0.000000  -0.002183   0.000041   0.000043   0.002293  -0.000315
    28  H    0.000000   0.000504   0.000013  -0.000011   0.000081   0.003051
    29  H    0.000000  -0.001473   0.000000   0.000000  -0.000005  -0.000002
    30  H   -0.002235   0.000000   0.000000   0.000000   0.000000   0.000000
    31  H    0.005515   0.000000   0.000006   0.000020   0.000000   0.000000
    32  H    0.268295   0.000000   0.000000   0.000000   0.000000   0.000000
             25         26         27         28         29         30
     1  O    0.000000   0.000000   0.000000   0.000000   0.000000  -0.000003
     2  C    0.000000   0.000000  -0.000001   0.000000   0.000000   0.000007
     3  C    0.000000   0.000000  -0.000151  -0.000001   0.000001  -0.000017
     4  N    0.000000   0.000000   0.000004   0.000001  -0.000020   0.000000
     5  C   -0.000003   0.000005   0.004029  -0.000041   0.000970   0.000000
     6  N    0.000143  -0.000190   0.001228  -0.000002   0.000012   0.000001
     7  C    0.004709   0.003726   0.000337   0.000052   0.000002   0.000000
     8  C   -0.006075   0.007113   0.002498  -0.000145   0.000016   0.000000
     9  C   -0.034658  -0.039336  -0.003947   0.002274  -0.000219   0.000000
    10  O    0.236326   0.002248  -0.000012  -0.000055   0.000001   0.000000
    11  C   -0.007062   0.374480  -0.032628  -0.033929   0.005373   0.000000
    12  C    0.000694  -0.047530   0.354073   0.347654  -0.018480   0.000000
    13  O   -0.000003   0.001972  -0.039437  -0.035883   0.232214   0.000000
    14  O    0.008382  -0.040424  -0.003913   0.003331  -0.000114   0.000000
    15  C   -0.000003   0.000008   0.000207   0.000000  -0.000001  -0.000047
    16  N    0.000001   0.000000   0.000000   0.000000   0.000000   0.003752
    17  C    0.000000   0.000000   0.000001   0.000000   0.000000  -0.019241
    18  N    0.000000   0.000000   0.000000   0.000000   0.000000   0.305684
    19  N    0.000000   0.000000   0.000000   0.000000   0.000000  -0.002235
    20  H   -0.000001  -0.000050  -0.002183   0.000504  -0.001473   0.000000
    21  H   -0.000767  -0.000129   0.000041   0.000013   0.000000   0.000000
    22  H   -0.000189  -0.000130   0.000043  -0.000011   0.000000   0.000000
    23  H   -0.000070  -0.000166   0.002293   0.000081  -0.000005   0.000000
    24  H    0.007584   0.000150  -0.000315   0.003051  -0.000002   0.000000
    25  H    0.394589  -0.001296   0.000001  -0.000023   0.000000   0.000000
    26  H   -0.001296   0.570157   0.006038  -0.004046  -0.000111   0.000000
    27  H    0.000001   0.006038   0.631740  -0.051883  -0.004666   0.000000
    28  H   -0.000023  -0.004046  -0.051883   0.636966  -0.003064   0.000000
    29  H    0.000000  -0.000111  -0.004666  -0.003064   0.384639   0.000000
    30  H    0.000000   0.000000   0.000000   0.000000   0.000000   0.400703
    31  H    0.000000   0.000000   0.000000   0.000000   0.000000  -0.023262
    32  H    0.000000   0.000000   0.000000   0.000000   0.000000   0.001575
             31         32
     1  O    0.000001   0.010570
     2  C    0.000026  -0.004577
     3  C    0.000070   0.009227
     4  N   -0.000001  -0.000058
     5  C    0.000000   0.000005
     6  N   -0.000025   0.000022
     7  C    0.000004   0.000000
     8  C    0.000004   0.000000
     9  C    0.000000   0.000000
    10  O    0.000000   0.000000
    11  C    0.000000   0.000000
    12  C    0.000000   0.000000
    13  O    0.000000   0.000000
    14  O    0.000000   0.000000
    15  C    0.000381  -0.000103
    16  N    0.005381   0.004053
    17  C   -0.015025  -0.019059
    18  N    0.303354  -0.002880
    19  N    0.005515   0.268295
    20  H    0.000000   0.000000
    21  H    0.000006   0.000000
    22  H    0.000020   0.000000
    23  H    0.000000   0.000000
    24  H    0.000000   0.000000
    25  H    0.000000   0.000000
    26  H    0.000000   0.000000
    27  H    0.000000   0.000000
    28  H    0.000000   0.000000
    29  H    0.000000   0.000000
    30  H   -0.023262   0.001575
    31  H    0.374987  -0.000096
    32  H   -0.000096   0.394822
 Mulliken atomic charges:
              1
     1  O   -0.504837
     2  C    0.576619
     3  C    0.125555
     4  N   -0.491265
     5  C    0.186121
     6  N   -0.535083
     7  C    0.289006
     8  C   -0.337565
     9  C    0.116481
    10  O   -0.624850
    11  C    0.084162
    12  C   -0.053422
    13  O   -0.606028
    14  O   -0.497727
    15  C    0.510361
    16  N   -0.597260
    17  C    0.704642
    18  N   -0.771874
    19  N   -0.697496
    20  H    0.197766
    21  H    0.166002
    22  H    0.180437
    23  H    0.168727
    24  H    0.149662
    25  H    0.397722
    26  H    0.167512
    27  H    0.136604
    28  H    0.135157
    29  H    0.404927
    30  H    0.333082
    31  H    0.348659
    32  H    0.338204
 Sum of Mulliken atomic charges =   0.00000
 Mulliken charges with hydrogens summed into heavy atoms:
              1
     1  O   -0.504837
     2  C    0.576619
     3  C    0.125555
     4  N   -0.491265
     5  C    0.383887
     6  N   -0.535083
     7  C    0.455007
     8  C    0.011600
     9  C    0.266143
    10  O   -0.227129
    11  C    0.251674
    12  C    0.218339
    13  O   -0.201101
    14  O   -0.497727
    15  C    0.510361
    16  N   -0.597260
    17  C    0.704642
    18  N   -0.090133
    19  N   -0.359291
 Sum of Mulliken charges with hydrogens summed into heavy atoms =   0.00000
 Electronic spatial extent (au):  <R**2>=           5535.3179
 Charge=              0.0000 electrons
 Dipole moment (field-independent basis, Debye):
    X=              0.9305    Y=              5.7114    Z=              1.0879  Tot=              5.8880
 Quadrupole moment (field-independent basis, Debye-Ang):
   XX=           -103.3281   YY=           -113.1674   ZZ=           -105.3577
   XY=            -30.7246   XZ=              7.5719   YZ=             -8.7495
 Traceless Quadrupole moment (field-independent basis, Debye-Ang):
   XX=              3.9563   YY=             -5.8830   ZZ=              1.9267
   XY=            -30.7246   XZ=              7.5719   YZ=             -8.7495
 Octapole moment (field-independent basis, Debye-Ang**2):
  XXX=            -59.9066  YYY=             31.7394  ZZZ=             -0.0693  XYY=              8.5159
  XXY=             84.1313  XXZ=              1.4846  XZZ=             22.1002  YZZ=              0.0251
  YYZ=             -1.9470  XYZ=            -16.5415
 Hexadecapole moment (field-independent basis, Debye-Ang**3):
 XXXX=          -4735.7379 YYYY=          -1552.7025 ZZZZ=           -292.2556 XXXY=           -583.2934
 XXXZ=             44.9714 YYYX=           -327.5858 YYYZ=            -87.5129 ZZZX=             -2.3738
 ZZZY=            -22.4955 XXYY=          -1172.1231 XXZZ=           -841.3454 YYZZ=           -306.8001
 XXYZ=            -90.1312 YYXZ=             51.4883 ZZXY=             19.7137
 N-N= 1.504835923305D+03 E-N=-5.258777288536D+03  KE= 9.549766263750D+02
 1|1|UNPC-DESKTOP-N7IAV1E|FOpt|RB3LYP|6-31G(d)|C10H13N5O4|KAWAS|13-Mar-
 2019|0||#opt b3lyp/6-31g(d) Geom=AllCheck Guess=Read||Conformer_0 at -
 21.261678838689907 MMFF energy generated from O=C1C(N=CN2[C@H]3C[C@H](
 O)[C@@H](CO)O3)=C2N=C(N)N1||0,1|O,4.4945854848,1.2149801425,-1.8231661
 064|C,3.6593251618,0.8942133988,-0.9964497034|C,2.3703068547,0.2668250
 003,-1.1349074266|N,1.7038846519,-0.1702232175,-2.2611279541|C,0.57133
 95843,-0.6514790526,-1.8098907446|N,0.444802525,-0.5387883444,-0.43062
 77836|C,-0.6556670161,-1.0065930001,0.4251765781|C,-1.4034738914,0.142
 6415712,1.1449262741|C,-2.8886092202,-0.1670763117,0.8682718575|O,-3.4
 758762786,-0.9873717601,1.8692283891|C,-2.8134414332,-0.8939679462,-0.
 483569856|C,-2.7914793066,0.0351523855,-1.6940169854|O,-2.6393292579,-
 0.7665878405,-2.855883291|O,-1.6135178088,-1.6889833267,-0.3623139944|
 C,1.6070469547,0.04166168,0.0112795416|N,1.9105544344,0.3045304752,1.3
 127443261|C,3.0838932478,0.8747212521,1.4499165768|N,3.5082015804,1.26
 9227034,2.7033136952|N,3.9143636468,1.1603928781,0.3974206815|H,-0.219
 4056875,-1.0909399904,-2.4010995748|H,-0.2248646975,-1.7250244592,1.12
 98405708|H,-1.1950850077,0.1686906577,2.2160202722|H,-1.1122314116,1.1
 078697178,0.7207677365|H,-3.5013855029,0.7379218493,0.8349527324|H,-3.
 0544108714,-1.8610749594,1.8126422748|H,-3.6351998712,-1.605908882,-0.
 6029513436|H,-1.9757374489,0.7677090894,-1.602419162|H,-3.7424881008,0
 .5925968521,-1.7109210535|H,-2.5392489402,-0.1762993302,-3.61836872|H,
 4.500867695,1.2014652802,2.8915729297|H,2.9345196069,0.8824993628,3.44
 26785497|H,4.7779603242,1.6672197939,0.556960713||Version=EM64W-G09Rev
 C.01|State=1-A|HF=-963.5347219|RMSD=5.208e-009|RMSF=5.094e-006|Dipole=
 -0.6708362,0.4384354,2.1734965|Quadrupole=1.0103547,-1.2907658,0.28041
 11,-3.2114747,24.4555664,-0.9775146|PG=C01 [X(C10H13N5O4)]||@


 HOW IS IT THAT THE SKY FEEDS THE STARS?

                           -- LUCRETIUS
 Job cpu time:  0 days  4 hours 30 minutes 41.0 seconds.
 File lengths (MBytes):  RWF=     65 Int=      0 D2E=      0 Chk=      8 Scr=      1
 Normal termination of Gaussian 09 at Wed Mar 13 23:25:32 2019.
