 Entering Gaussian System, Link 0=C:\G09W\g09.exe
 Input=entry1_confs_1.gjf
 Output=C:\Users\kawas\Desktop\fluorescene_okuda\calcs\nucleosides_trial2\entries\entry1\entry1_confs_1.out
 Initial command:
 C:/G09W\l1.exe .\Gau-2240.inp C:\Users\kawas\Desktop\fluorescene_okuda\calcs\nucleosides_trial2\entries\entry1\entry1_confs_1.out /scrdir=.\
 Entering Link 1 = C:/G09W\l1.exe PID=     14352.
  
 Copyright (c) 1988,1990,1992,1993,1995,1998,2003,2009,2011,
            Gaussian, Inc.  All Rights Reserved.
  
 This is part of the Gaussian(R) 09 program.  It is based on
 the Gaussian(R) 03 system (copyright 2003, Gaussian, Inc.),
 the Gaussian(R) 98 system (copyright 1998, Gaussian, Inc.),
 the Gaussian(R) 94 system (copyright 1995, Gaussian, Inc.),
 the Gaussian 92(TM) system (copyright 1992, Gaussian, Inc.),
 the Gaussian 90(TM) system (copyright 1990, Gaussian, Inc.),
 the Gaussian 88(TM) system (copyright 1988, Gaussian, Inc.),
 the Gaussian 86(TM) system (copyright 1986, Carnegie Mellon
 University), and the Gaussian 82(TM) system (copyright 1983,
 Carnegie Mellon University). Gaussian is a federally registered
 trademark of Gaussian, Inc.
  
 This software contains proprietary and confidential information,
 including trade secrets, belonging to Gaussian, Inc.
  
 This software is provided under written license and may be
 used, copied, transmitted, or stored only in accord with that
 written license.
  
 The following legend is applicable only to US Government
 contracts under FAR:
  
                    RESTRICTED RIGHTS LEGEND
  
 Use, reproduction and disclosure by the US Government is
 subject to restrictions as set forth in subparagraphs (a)
 and (c) of the Commercial Computer Software - Restricted
 Rights clause in FAR 52.227-19.
  
 Gaussian, Inc.
 340 Quinnipiac St., Bldg. 40, Wallingford CT 06492
  
  
 ---------------------------------------------------------------
 Warning -- This program may not be used in any manner that
 competes with the business of Gaussian, Inc. or will provide
 assistance to any competitor of Gaussian, Inc.  The licensee
 of this program is prohibited from giving any competitor of
 Gaussian, Inc. access to this program.  By using this program,
 the user acknowledges that Gaussian, Inc. is engaged in the
 business of creating and licensing software in the field of
 computational chemistry and represents and warrants to the
 licensee that it is not a competitor of Gaussian, Inc. and that
 it will not use this program in any manner prohibited above.
 ---------------------------------------------------------------
  

 Cite this work as:
 Gaussian 09, Revision C.01,
 M. J. Frisch, G. W. Trucks, H. B. Schlegel, G. E. Scuseria, 
 M. A. Robb, J. R. Cheeseman, G. Scalmani, V. Barone, B. Mennucci, 
 G. A. Petersson, H. Nakatsuji, M. Caricato, X. Li, H. P. Hratchian, 
 A. F. Izmaylov, J. Bloino, G. Zheng, J. L. Sonnenberg, M. Hada, 
 M. Ehara, K. Toyota, R. Fukuda, J. Hasegawa, M. Ishida, T. Nakajima, 
 Y. Honda, O. Kitao, H. Nakai, T. Vreven, J. A. Montgomery, Jr., 
 J. E. Peralta, F. Ogliaro, M. Bearpark, J. J. Heyd, E. Brothers, 
 K. N. Kudin, V. N. Staroverov, T. Keith, R. Kobayashi, J. Normand, 
 K. Raghavachari, A. Rendell, J. C. Burant, S. S. Iyengar, J. Tomasi, 
 M. Cossi, N. Rega, J. M. Millam, M. Klene, J. E. Knox, J. B. Cross, 
 V. Bakken, C. Adamo, J. Jaramillo, R. Gomperts, R. E. Stratmann, 
 O. Yazyev, A. J. Austin, R. Cammi, C. Pomelli, J. W. Ochterski, 
 R. L. Martin, K. Morokuma, V. G. Zakrzewski, G. A. Voth, 
 P. Salvador, J. J. Dannenberg, S. Dapprich, A. D. Daniels, 
 O. Farkas, J. B. Foresman, J. V. Ortiz, J. Cioslowski, 
 and D. J. Fox, Gaussian, Inc., Wallingford CT, 2010.
 
 ******************************************
 Gaussian 09:  EM64W-G09RevC.01 23-Sep-2011
                13-Mar-2019 
 ******************************************
 %chk=entry1_confs_1
 %nprocshared=4
 Will use up to    4 processors via shared memory.
 %mem=260MB
 -------------
 #opt hf/3-21g
 -------------
 1/18=20,19=15,38=1/1,3;
 2/9=110,12=2,17=6,18=5,40=1/2;
 3/5=5,11=9,16=1,25=1,30=1,71=1/1,2,3;
 4//1;
 5/5=2,38=5/2;
 6/7=2,8=2,9=2,10=2,28=1/1;
 7//1,2,3,16;
 1/18=20,19=15/3(2);
 2/9=110/2;
 99//99;
 2/9=110/2;
 3/5=5,11=9,16=1,25=1,30=1,71=1/1,2,3;
 4/5=5,16=3/1;
 5/5=2,38=5/2;
 7//1,2,3,16;
 1/18=20,19=15/3(-5);
 2/9=110/2;
 6/7=2,8=2,9=2,10=2,19=2,28=1/1;
 99/9=1/99;
 ----------------------------------------------------------------------
 Conformer_1 at -23.371629409415668 MMFF energy generated from O=C1C(N=
 CN2[C@H]3C[C@H](O)[C@@H](CO)O3)=C2N=C(N)N1
 ----------------------------------------------------------------------
 Charge =  0 Multiplicity = 1
 Symbolic Z-Matrix:
 O                     4.5932    2.2513   -0.8614 
 C                     3.9687    1.3807   -0.6537 
 C                     2.5883    1.4977   -0.4612 
 N                     1.7793    2.5674   -0.4791 
 C                     0.5209    2.1287   -0.2324 
 N                     0.5054    0.8159   -0.0587 
 C                    -0.6349   -0.0526    0.2264 
 C                    -1.367     0.4204    1.4744 
 C                    -2.8138    0.4095    0.9996 
 O                    -3.6783   -0.1244    1.9165 
 C                    -2.6867   -0.5446   -0.1961 
 C                    -3.9197   -0.4401   -1.0516 
 O                    -3.711    -1.1469   -2.227 
 O                    -1.5536   -0.0316   -0.8063 
 C                     1.7816    0.3939   -0.1957 
 N                     2.355    -0.817    -0.1238 
 C                     3.6803   -0.9579   -0.3049 
 N                     4.2824   -2.2653   -0.2249 
 N                     4.4499    0.1238   -0.562 
 H                    -0.3522    2.7632   -0.1838 
 H                    -0.2941   -1.0867    0.3687 
 H                    -1.2399   -0.331     2.2885 
 H                    -1.0579    1.4282    1.7772 
 H                    -3.0566    1.4158    0.6487 
 H                    -3.2967   -0.2758    2.8048 
 H                    -2.5728   -1.5696    0.1537 
 H                    -4.7411   -0.9457   -0.5023 
 H                    -4.2193    0.6109   -1.2293 
 H                    -3.8115   -2.1061   -2.0173 
 H                     4.2576   -2.8428    0.6286 
 H                     4.7679   -2.6506   -1.0678 
 H                     5.4768   -0.019    -0.698 
 

 GradGradGradGradGradGradGradGradGradGradGradGradGradGradGradGradGradGrad
 Berny optimization.
 Initialization pass.
                           ----------------------------
                           !    Initial Parameters    !
                           ! (Angstroms and Degrees)  !
 --------------------------                            --------------------------
 ! Name  Definition              Value          Derivative Info.                !
 --------------------------------------------------------------------------------
 ! R1    R(1,2)                  1.0914         estimate D2E/DX2                !
 ! R2    R(2,3)                  1.3987         estimate D2E/DX2                !
 ! R3    R(2,19)                 1.349          estimate D2E/DX2                !
 ! R4    R(3,4)                  1.3413         estimate D2E/DX2                !
 ! R5    R(3,15)                 1.3927         estimate D2E/DX2                !
 ! R6    R(4,5)                  1.3553         estimate D2E/DX2                !
 ! R7    R(5,6)                  1.3243         estimate D2E/DX2                !
 ! R8    R(5,20)                 1.0804         estimate D2E/DX2                !
 ! R9    R(6,7)                  1.4615         estimate D2E/DX2                !
 ! R10   R(6,15)                 1.3511         estimate D2E/DX2                !
 ! R11   R(7,8)                  1.5222         estimate D2E/DX2                !
 ! R12   R(7,14)                 1.3824         estimate D2E/DX2                !
 ! R13   R(7,21)                 1.0981         estimate D2E/DX2                !
 ! R14   R(8,9)                  1.5228         estimate D2E/DX2                !
 ! R15   R(8,22)                 1.1151         estimate D2E/DX2                !
 ! R16   R(8,23)                 1.0968         estimate D2E/DX2                !
 ! R17   R(9,10)                 1.3686         estimate D2E/DX2                !
 ! R18   R(9,11)                 1.535          estimate D2E/DX2                !
 ! R19   R(9,24)                 1.093          estimate D2E/DX2                !
 ! R20   R(10,25)                0.9786         estimate D2E/DX2                !
 ! R21   R(11,12)                1.5044         estimate D2E/DX2                !
 ! R22   R(11,14)                1.3854         estimate D2E/DX2                !
 ! R23   R(11,26)                1.089          estimate D2E/DX2                !
 ! R24   R(12,13)                1.3873         estimate D2E/DX2                !
 ! R25   R(12,27)                1.11           estimate D2E/DX2                !
 ! R26   R(12,28)                1.1072         estimate D2E/DX2                !
 ! R27   R(13,29)                0.987          estimate D2E/DX2                !
 ! R28   R(15,16)                1.3417         estimate D2E/DX2                !
 ! R29   R(16,17)                1.345          estimate D2E/DX2                !
 ! R30   R(17,18)                1.4416         estimate D2E/DX2                !
 ! R31   R(17,19)                1.3522         estimate D2E/DX2                !
 ! R32   R(18,30)                1.0308         estimate D2E/DX2                !
 ! R33   R(18,31)                1.0463         estimate D2E/DX2                !
 ! R34   R(19,32)                1.0457         estimate D2E/DX2                !
 ! A1    A(1,2,3)              121.6151         estimate D2E/DX2                !
 ! A2    A(1,2,19)             123.5098         estimate D2E/DX2                !
 ! A3    A(3,2,19)             114.8751         estimate D2E/DX2                !
 ! A4    A(2,3,4)              131.3115         estimate D2E/DX2                !
 ! A5    A(2,3,15)             122.1142         estimate D2E/DX2                !
 ! A6    A(4,3,15)             106.5742         estimate D2E/DX2                !
 ! A7    A(3,4,5)              107.4242         estimate D2E/DX2                !
 ! A8    A(4,5,6)              110.8309         estimate D2E/DX2                !
 ! A9    A(4,5,20)             124.6409         estimate D2E/DX2                !
 ! A10   A(6,5,20)             124.5282         estimate D2E/DX2                !
 ! A11   A(5,6,7)              128.5952         estimate D2E/DX2                !
 ! A12   A(5,6,15)             106.5743         estimate D2E/DX2                !
 ! A13   A(7,6,15)             124.8306         estimate D2E/DX2                !
 ! A14   A(6,7,8)              110.5197         estimate D2E/DX2                !
 ! A15   A(6,7,14)             111.3326         estimate D2E/DX2                !
 ! A16   A(6,7,21)             110.0457         estimate D2E/DX2                !
 ! A17   A(8,7,14)             106.7458         estimate D2E/DX2                !
 ! A18   A(8,7,21)             109.6118         estimate D2E/DX2                !
 ! A19   A(14,7,21)            108.5046         estimate D2E/DX2                !
 ! A20   A(7,8,9)              101.4839         estimate D2E/DX2                !
 ! A21   A(7,8,22)             109.5322         estimate D2E/DX2                !
 ! A22   A(7,8,23)             112.1064         estimate D2E/DX2                !
 ! A23   A(9,8,22)             109.3356         estimate D2E/DX2                !
 ! A24   A(9,8,23)             111.1268         estimate D2E/DX2                !
 ! A25   A(22,8,23)            112.674          estimate D2E/DX2                !
 ! A26   A(8,9,10)             113.2069         estimate D2E/DX2                !
 ! A27   A(8,9,11)              99.71           estimate D2E/DX2                !
 ! A28   A(8,9,24)             107.7319         estimate D2E/DX2                !
 ! A29   A(10,9,11)            109.3716         estimate D2E/DX2                !
 ! A30   A(10,9,24)            115.7159         estimate D2E/DX2                !
 ! A31   A(11,9,24)            109.9115         estimate D2E/DX2                !
 ! A32   A(9,10,25)            114.9721         estimate D2E/DX2                !
 ! A33   A(9,11,12)            109.3866         estimate D2E/DX2                !
 ! A34   A(9,11,14)            100.4078         estimate D2E/DX2                !
 ! A35   A(9,11,26)            110.0893         estimate D2E/DX2                !
 ! A36   A(12,11,14)           113.2128         estimate D2E/DX2                !
 ! A37   A(12,11,26)           109.4977         estimate D2E/DX2                !
 ! A38   A(14,11,26)           113.8564         estimate D2E/DX2                !
 ! A39   A(11,12,13)           108.8518         estimate D2E/DX2                !
 ! A40   A(11,12,27)           107.0653         estimate D2E/DX2                !
 ! A41   A(11,12,28)           112.2708         estimate D2E/DX2                !
 ! A42   A(13,12,27)           107.3695         estimate D2E/DX2                !
 ! A43   A(13,12,28)           112.8505         estimate D2E/DX2                !
 ! A44   A(27,12,28)           108.1532         estimate D2E/DX2                !
 ! A45   A(12,13,29)           107.4455         estimate D2E/DX2                !
 ! A46   A(7,14,11)            102.0571         estimate D2E/DX2                !
 ! A47   A(3,15,6)             108.5964         estimate D2E/DX2                !
 ! A48   A(3,15,16)            118.5518         estimate D2E/DX2                !
 ! A49   A(6,15,16)            132.8518         estimate D2E/DX2                !
 ! A50   A(15,16,17)           120.5587         estimate D2E/DX2                !
 ! A51   A(16,17,18)           119.9385         estimate D2E/DX2                !
 ! A52   A(16,17,19)           120.1722         estimate D2E/DX2                !
 ! A53   A(18,17,19)           119.8892         estimate D2E/DX2                !
 ! A54   A(17,18,30)           122.9551         estimate D2E/DX2                !
 ! A55   A(17,18,31)           118.8871         estimate D2E/DX2                !
 ! A56   A(30,18,31)           118.1579         estimate D2E/DX2                !
 ! A57   A(2,19,17)            123.7279         estimate D2E/DX2                !
 ! A58   A(2,19,32)            117.9508         estimate D2E/DX2                !
 ! A59   A(17,19,32)           118.3213         estimate D2E/DX2                !
 ! D1    D(1,2,3,4)             -0.0016         estimate D2E/DX2                !
 ! D2    D(1,2,3,15)           179.9962         estimate D2E/DX2                !
 ! D3    D(19,2,3,4)           179.9992         estimate D2E/DX2                !
 ! D4    D(19,2,3,15)           -0.003          estimate D2E/DX2                !
 ! D5    D(1,2,19,17)         -179.9995         estimate D2E/DX2                !
 ! D6    D(1,2,19,32)           -0.0039         estimate D2E/DX2                !
 ! D7    D(3,2,19,17)           -0.0004         estimate D2E/DX2                !
 ! D8    D(3,2,19,32)          179.9953         estimate D2E/DX2                !
 ! D9    D(2,3,4,5)           -179.9997         estimate D2E/DX2                !
 ! D10   D(15,3,4,5)             0.0022         estimate D2E/DX2                !
 ! D11   D(2,3,15,6)          -179.9998         estimate D2E/DX2                !
 ! D12   D(2,3,15,16)            0.007          estimate D2E/DX2                !
 ! D13   D(4,3,15,6)            -0.0015         estimate D2E/DX2                !
 ! D14   D(4,3,15,16)         -179.9947         estimate D2E/DX2                !
 ! D15   D(3,4,5,6)             -0.0022         estimate D2E/DX2                !
 ! D16   D(3,4,5,20)           179.9983         estimate D2E/DX2                !
 ! D17   D(4,5,6,7)            179.9963         estimate D2E/DX2                !
 ! D18   D(4,5,6,15)             0.0012         estimate D2E/DX2                !
 ! D19   D(20,5,6,7)            -0.0042         estimate D2E/DX2                !
 ! D20   D(20,5,6,15)         -179.9993         estimate D2E/DX2                !
 ! D21   D(5,6,7,8)            -55.6019         estimate D2E/DX2                !
 ! D22   D(5,6,7,14)            62.8514         estimate D2E/DX2                !
 ! D23   D(5,6,7,21)          -176.8041         estimate D2E/DX2                !
 ! D24   D(15,6,7,8)           124.3924         estimate D2E/DX2                !
 ! D25   D(15,6,7,14)         -117.1542         estimate D2E/DX2                !
 ! D26   D(15,6,7,21)            3.1902         estimate D2E/DX2                !
 ! D27   D(5,6,15,3)             0.0002         estimate D2E/DX2                !
 ! D28   D(5,6,15,16)          179.992          estimate D2E/DX2                !
 ! D29   D(7,6,15,3)          -179.9952         estimate D2E/DX2                !
 ! D30   D(7,6,15,16)           -0.0033         estimate D2E/DX2                !
 ! D31   D(6,7,8,9)            132.0705         estimate D2E/DX2                !
 ! D32   D(6,7,8,22)          -112.426          estimate D2E/DX2                !
 ! D33   D(6,7,8,23)            13.4178         estimate D2E/DX2                !
 ! D34   D(14,7,8,9)            10.8561         estimate D2E/DX2                !
 ! D35   D(14,7,8,22)          126.3597         estimate D2E/DX2                !
 ! D36   D(14,7,8,23)         -107.7966         estimate D2E/DX2                !
 ! D37   D(21,7,8,9)          -106.4702         estimate D2E/DX2                !
 ! D38   D(21,7,8,22)            9.0333         estimate D2E/DX2                !
 ! D39   D(21,7,8,23)          134.877          estimate D2E/DX2                !
 ! D40   D(6,7,14,11)         -162.3629         estimate D2E/DX2                !
 ! D41   D(8,7,14,11)          -41.6668         estimate D2E/DX2                !
 ! D42   D(21,7,14,11)          76.3884         estimate D2E/DX2                !
 ! D43   D(7,8,9,10)           136.5034         estimate D2E/DX2                !
 ! D44   D(7,8,9,11)            20.4312         estimate D2E/DX2                !
 ! D45   D(7,8,9,24)           -94.2435         estimate D2E/DX2                !
 ! D46   D(22,8,9,10)           20.8549         estimate D2E/DX2                !
 ! D47   D(22,8,9,11)          -95.2173         estimate D2E/DX2                !
 ! D48   D(22,8,9,24)          150.1081         estimate D2E/DX2                !
 ! D49   D(23,8,9,10)         -104.1436         estimate D2E/DX2                !
 ! D50   D(23,8,9,11)          139.7842         estimate D2E/DX2                !
 ! D51   D(23,8,9,24)           25.1095         estimate D2E/DX2                !
 ! D52   D(8,9,10,25)           10.6581         estimate D2E/DX2                !
 ! D53   D(11,9,10,25)         120.8562         estimate D2E/DX2                !
 ! D54   D(24,9,10,25)        -114.3919         estimate D2E/DX2                !
 ! D55   D(8,9,11,12)         -165.353          estimate D2E/DX2                !
 ! D56   D(8,9,11,14)          -46.0477         estimate D2E/DX2                !
 ! D57   D(8,9,11,26)           74.2855         estimate D2E/DX2                !
 ! D58   D(10,9,11,12)          75.7043         estimate D2E/DX2                !
 ! D59   D(10,9,11,14)        -164.9904         estimate D2E/DX2                !
 ! D60   D(10,9,11,26)         -44.6572         estimate D2E/DX2                !
 ! D61   D(24,9,11,12)         -52.3601         estimate D2E/DX2                !
 ! D62   D(24,9,11,14)          66.9452         estimate D2E/DX2                !
 ! D63   D(24,9,11,26)        -172.7216         estimate D2E/DX2                !
 ! D64   D(9,11,12,13)         171.0548         estimate D2E/DX2                !
 ! D65   D(9,11,12,27)         -73.1728         estimate D2E/DX2                !
 ! D66   D(9,11,12,28)          45.3754         estimate D2E/DX2                !
 ! D67   D(14,11,12,13)         59.9978         estimate D2E/DX2                !
 ! D68   D(14,11,12,27)        175.7702         estimate D2E/DX2                !
 ! D69   D(14,11,12,28)        -65.6815         estimate D2E/DX2                !
 ! D70   D(26,11,12,13)        -68.2229         estimate D2E/DX2                !
 ! D71   D(26,11,12,27)         47.5495         estimate D2E/DX2                !
 ! D72   D(26,11,12,28)        166.0977         estimate D2E/DX2                !
 ! D73   D(9,11,14,7)           54.7449         estimate D2E/DX2                !
 ! D74   D(12,11,14,7)         171.2318         estimate D2E/DX2                !
 ! D75   D(26,11,14,7)         -62.8412         estimate D2E/DX2                !
 ! D76   D(11,12,13,29)         77.0875         estimate D2E/DX2                !
 ! D77   D(27,12,13,29)        -38.4888         estimate D2E/DX2                !
 ! D78   D(28,12,13,29)       -157.5706         estimate D2E/DX2                !
 ! D79   D(3,15,16,17)          -0.0076         estimate D2E/DX2                !
 ! D80   D(6,15,16,17)        -179.9988         estimate D2E/DX2                !
 ! D81   D(15,16,17,18)       -179.9915         estimate D2E/DX2                !
 ! D82   D(15,16,17,19)          0.0045         estimate D2E/DX2                !
 ! D83   D(16,17,18,30)        -61.4076         estimate D2E/DX2                !
 ! D84   D(16,17,18,31)        118.5994         estimate D2E/DX2                !
 ! D85   D(19,17,18,30)        118.5964         estimate D2E/DX2                !
 ! D86   D(19,17,18,31)        -61.3967         estimate D2E/DX2                !
 ! D87   D(16,17,19,2)          -0.0003         estimate D2E/DX2                !
 ! D88   D(16,17,19,32)       -179.9959         estimate D2E/DX2                !
 ! D89   D(18,17,19,2)         179.9957         estimate D2E/DX2                !
 ! D90   D(18,17,19,32)          0.0001         estimate D2E/DX2                !
 --------------------------------------------------------------------------------
 Trust Radius=3.00D-01 FncErr=1.00D-07 GrdErr=1.00D-07
 Number of steps in this run=    192 maximum allowed number of steps=    192.
 GradGradGradGradGradGradGradGradGradGradGradGradGradGradGradGradGradGrad

                          Input orientation:                          
 ---------------------------------------------------------------------
 Center     Atomic      Atomic             Coordinates (Angstroms)
 Number     Number       Type             X           Y           Z
 ---------------------------------------------------------------------
      1          8           0        4.593200    2.251300   -0.861400
      2          6           0        3.968700    1.380700   -0.653700
      3          6           0        2.588300    1.497700   -0.461200
      4          7           0        1.779300    2.567400   -0.479100
      5          6           0        0.520900    2.128700   -0.232400
      6          7           0        0.505400    0.815900   -0.058700
      7          6           0       -0.634900   -0.052600    0.226400
      8          6           0       -1.367000    0.420400    1.474400
      9          6           0       -2.813800    0.409500    0.999600
     10          8           0       -3.678300   -0.124400    1.916500
     11          6           0       -2.686700   -0.544600   -0.196100
     12          6           0       -3.919700   -0.440100   -1.051600
     13          8           0       -3.711000   -1.146900   -2.227000
     14          8           0       -1.553600   -0.031600   -0.806300
     15          6           0        1.781600    0.393900   -0.195700
     16          7           0        2.355000   -0.817000   -0.123800
     17          6           0        3.680300   -0.957900   -0.304900
     18          7           0        4.282400   -2.265300   -0.224900
     19          7           0        4.449900    0.123800   -0.562000
     20          1           0       -0.352200    2.763200   -0.183800
     21          1           0       -0.294100   -1.086700    0.368700
     22          1           0       -1.239900   -0.331000    2.288500
     23          1           0       -1.057900    1.428200    1.777200
     24          1           0       -3.056600    1.415800    0.648700
     25          1           0       -3.296700   -0.275800    2.804800
     26          1           0       -2.572800   -1.569600    0.153700
     27          1           0       -4.741100   -0.945700   -0.502300
     28          1           0       -4.219300    0.610900   -1.229300
     29          1           0       -3.811500   -2.106100   -2.017300
     30          1           0        4.257600   -2.842800    0.628600
     31          1           0        4.767900   -2.650600   -1.067800
     32          1           0        5.476800   -0.019000   -0.698000
 ---------------------------------------------------------------------
                    Distance matrix (angstroms):
                    1          2          3          4          5
     1  O    0.000000
     2  C    1.091368   0.000000
     3  C    2.178921   1.398660   0.000000
     4  N    2.857290   2.496440   1.341290   0.000000
     5  C    4.122414   3.553072   2.173627   1.355319   0.000000
     6  N    4.406224   3.559139   2.228302   2.206198   1.324332
     7  C    5.815866   4.901230   3.642148   3.631872   2.510865
     8  C    6.658239   5.824146   4.533379   4.280768   3.065228
     9  C    7.856157   7.048329   5.700947   5.285797   3.948886
    10  O    9.043141   8.206574   6.896009   6.539884   5.227572
    11  C    7.826661   6.943380   5.662764   5.450669   4.175709
    12  C    8.930245   8.105584   6.815989   6.469267   5.195070
    13  O    9.075922   8.236615   7.056425   6.855259   5.711126
    14  O    6.557272   5.702076   4.428678   4.239113   3.049559
    15  C    3.434849   2.442733   1.392706   2.191899   2.144818
    16  N    3.868857   2.777536   2.350767   3.451352   3.471724
    17  C    3.382609   2.381992   2.692000   4.008976   4.417484
    18  N    4.571805   3.684507   4.133519   5.448405   5.784131
    19  N    2.153237   1.348985   2.315884   3.620795   4.423268
    20  H    5.017785   4.560953   3.213251   2.160748   1.080396
    21  H    6.044923   5.030390   3.959304   4.286047   3.371104
    22  H    7.114436   6.222216   5.055701   5.017559   3.937700
    23  H    6.290837   5.583748   4.279023   3.799786   2.649868
    24  H    7.842060   7.145090   5.753563   5.097455   3.752742
    25  H    9.059679   8.215306   6.960265   6.680835   5.438775
    26  H    8.184208   7.221315   6.035179   6.037879   4.837094
    27  H    9.873141   9.016411   7.726060   7.406620   6.100281
    28  H    8.971422   8.244225   6.907953   6.354046   5.076123
    29  H    9.537401   8.634158   7.507747   7.447463   6.315781
    30  H    5.318137   4.423314   4.776418   6.053035   6.278540
    31  H    4.909353   4.130566   4.725147   6.042005   6.447993
    32  H    2.441661   2.058030   3.271068   4.517620   5.421286
                    6          7          8          9         10
     6  N    0.000000
     7  C    1.461458   0.000000
     8  C    2.452080   1.522236   0.000000
     9  C    3.507456   2.357749   1.522755   0.000000
    10  O    4.721115   3.481936   2.415443   1.368618   0.000000
    11  C    3.472656   2.151849   2.337392   1.534979   2.371269
    12  C    4.705836   3.545892   3.692887   2.480374   2.994588
    13  O    5.131485   4.084000   4.653077   3.693006   4.267923
    14  O    2.348754   1.382360   2.332534   2.245874   3.454939
    15  C    1.351125   2.493392   3.564214   4.748335   5.877119
    16  N    2.468121   3.105873   4.235409   5.429809   6.406499
    17  C    3.645130   4.441036   5.526378   6.763493   7.731645
    18  N    4.877207   5.411058   6.482000   7.681797   8.517147
    19  N    4.036260   5.148581   6.170188   7.435157   8.501306
    20  H    2.131456   2.859530   3.044365   3.605525   4.879799
    21  H    2.107548   1.098070   2.155235   2.997589   3.843763
    22  H    3.141783   2.166977   1.115130   2.164894   2.475250
    23  H    2.487840   2.185561   1.096764   2.173844   3.049011
    24  H    3.680780   2.863419   2.127757   1.093034   2.089508
    25  H    4.883381   3.712566   2.445077   1.990371   0.978579
    26  H    3.900133   2.462119   2.675500   2.165748   2.533416
    27  H    5.552097   4.264916   4.142236   2.794057   2.766708
    28  H    4.871870   3.925203   3.934704   2.642723   3.275577
    29  H    5.568646   4.397936   4.954871   4.052818   4.406774
    30  H    5.285591   5.646551   6.557437   7.792291   8.486866
    31  H    5.586037   6.133091   7.316476   8.433299   9.307310
    32  H    5.081396   6.181304   7.193747   8.473459   9.521690
                   11         12         13         14         15
    11  C    0.000000
    12  C    1.504357   0.000000
    13  O    2.352979   1.387331   0.000000
    14  O    1.385434   2.413602   2.813656   0.000000
    15  C    4.565795   5.825199   6.055485   3.417227   0.000000
    16  N    5.049571   6.354111   6.428736   4.044727   1.341729
    17  C    6.381328   7.654128   7.639470   5.338833   2.333313
    18  N    7.178439   8.443295   8.315868   6.275854   3.650507
    19  N    7.177165   8.402850   8.425390   6.010478   2.706835
    20  H    4.048652   4.872501   5.544825   3.105121   3.188546
    21  H    2.517421   3.947191   4.291444   2.019951   2.611370
    22  H    2.883070   4.283632   5.211695   3.125034   3.978215
    23  H    3.230920   4.436502   5.450110   3.008522   3.608999
    24  H    2.166491   2.660888   3.907086   2.543816   5.016520
    25  H    3.074045   3.909852   5.123424   4.017222   5.936382
    26  H    1.089017   2.131351   2.672435   2.079859   4.789385
    27  H    2.115467   1.109982   2.018955   3.329888   6.665894
    28  H    2.179804   1.107221   2.084139   2.774471   6.093129
    29  H    2.649571   1.928689   0.986985   3.296693   6.391478
    30  H    7.361057   8.687018   8.633025   6.613005   4.157676
    31  H    7.795265   8.964428   8.688878   6.847547   4.352876
    32  H    8.195785   9.412575   9.382200   7.031245   3.751972
                   16         17         18         19         20
    16  N    0.000000
    17  C    1.345017   0.000000
    18  N    2.413020   1.441603   0.000000
    19  N    2.337890   1.352205   2.418572   0.000000
    20  H    4.488916   5.488379   6.838642   5.492689   0.000000
    21  H    2.707956   4.033135   4.762962   4.983678   3.889777
    22  H    4.356454   5.597061   6.368241   6.380127   4.058861
    23  H    4.505842   5.699048   6.794788   6.124474   2.475027
    24  H    5.904877   7.206221   8.256791   7.712496   3.134058
    25  H    6.388373   7.669030   8.401187   8.456053   5.180476
    26  H    4.992657   6.299663   6.900805   7.259349   4.880382
    27  H    7.107353   8.423722   9.123697   9.253209   5.754983
    28  H    6.817804   8.106746   9.031071   8.708478   4.547519
    29  H    6.578210   7.770312   8.291517   8.679924   6.248085
    30  H    2.879211   2.181180   1.030817   3.202378   7.303252
    31  H    3.174163   2.151772   1.046254   2.838002   7.503740
    32  H    3.272941   2.064818   2.587717   1.045663   6.479373
                   21         22         23         24         25
    21  H    0.000000
    22  H    2.269637   0.000000
    23  H    2.981943   1.841015   0.000000
    24  H    3.737956   3.006768   2.295314   0.000000
    25  H    3.950664   2.121330   2.995297   2.750986   0.000000
    26  H    2.339207   2.805018   3.730614   3.064588   3.037479
    27  H    4.533688   4.519383   4.939381   3.120741   3.670418
    28  H    4.565375   4.705201   4.438634   2.350876   4.232185
    29  H    4.370844   5.320152   5.871271   4.481206   5.183403
    30  H    4.885633   6.267927   6.914858   8.463663   8.269993
    31  H    5.489368   7.262159   7.659672   8.983584   9.256051
    32  H    5.964991   7.357349   7.136057   8.757349   9.450389
                   26         27         28         29         30
    26  H    0.000000
    27  H    2.349705   0.000000
    28  H    3.062390   1.795497   0.000000
    29  H    2.556453   2.122713   2.858205   0.000000
    30  H    6.964261   9.265772   9.340111   8.523725   0.000000
    31  H    7.519741   9.677167   9.562072   8.648938   1.781887
    32  H    8.241712  10.261703   9.731054   9.610882   3.349651
                   31         32
    31  H    0.000000
    32  H    2.750384   0.000000
 Stoichiometry    C10H13N5O4
 Framework group  C1[X(C10H13N5O4)]
 Deg. of freedom    90
 Full point group                 C1      NOp   1
 Largest Abelian subgroup         C1      NOp   1
 Largest concise Abelian subgroup C1      NOp   1
                         Standard orientation:                         
 ---------------------------------------------------------------------
 Center     Atomic      Atomic             Coordinates (Angstroms)
 Number     Number       Type             X           Y           Z
 ---------------------------------------------------------------------
      1          8           0       -4.407978   -1.541488   -0.644635
      2          6           0       -3.691000   -0.769086   -0.361051
      3          6           0       -2.318789   -1.031417   -0.294187
      4          7           0       -1.618853   -2.151119   -0.529592
      5          6           0       -0.311121   -1.864065   -0.319050
      6          7           0       -0.158856   -0.599057    0.042094
      7          6           0        1.075199    0.115474    0.362114
      8          6           0        1.835949   -0.602370    1.468081
      9          6           0        3.244223   -0.643071    0.890246
     10          8           0        4.212135   -0.330434    1.805953
     11          6           0        3.133910    0.488904   -0.140591
     12          6           0        4.294678    0.410651   -1.094312
     13          8           0        4.080872    1.302994   -2.134840
     14          8           0        1.920557    0.173199   -0.730112
     15          6           0       -1.394801   -0.053721    0.066348
     16          7           0       -1.843744    1.176700    0.357471
     17          6           0       -3.158207    1.456128    0.301099
     18          7           0       -3.625894    2.782792    0.616455
     19          7           0       -4.042690    0.495750   -0.050784
     20          1           0        0.498427   -2.570800   -0.430465
     21          1           0        0.844810    1.141242    0.679095
     22          1           0        1.833184    0.024733    2.390170
     23          1           0        1.451382   -1.614349    1.643863
     24          1           0        3.366745   -1.601411    0.379076
     25          1           0        3.903705   -0.283688    2.733478
     26          1           0        3.141158    1.454817    0.362317
     27          1           0        5.193835    0.754937   -0.542005
     28          1           0        4.480281   -0.622863   -1.445507
     29          1           0        4.285940    2.207085   -1.796159
     30          1           0       -3.491951    3.219700    1.540443
     31          1           0       -4.124491    3.331687   -0.121625
     32          1           0       -5.057695    0.744716   -0.085307
 ---------------------------------------------------------------------
 Rotational constants (GHZ):      0.7826378      0.1867684      0.1751059
 Standard basis: 3-21G (6D, 7F)
 There are   197 symmetry adapted basis functions of A   symmetry.
 Integral buffers will be    131072 words long.
 Raffenetti 1 integral format.
 Two-electron integral symmetry is turned on.
   197 basis functions,   324 primitive gaussians,   197 cartesian basis functions
    70 alpha electrons       70 beta electrons
       nuclear repulsion energy      1484.6103288385 Hartrees.
 NAtoms=   32 NActive=   32 NUniq=   32 SFac= 1.00D+00 NAtFMM=   60 NAOKFM=F Big=F
 One-electron integrals computed using PRISM.
 NBasis=   197 RedAO= T  NBF=   197
 NBsUse=   197 1.00D-06 NBFU=   197
 Harris functional with IExCor=  205 diagonalized for initial guess.
 ExpMin= 1.83D-01 ExpMax= 3.22D+02 ExpMxC= 3.22D+02 IAcc=1 IRadAn=         1 AccDes= 0.00D+00
 HarFok:  IExCor=  205 AccDes= 0.00D+00 IRadAn=         1 IDoV= 1
 ScaDFX=  1.000000  1.000000  1.000000  1.000000
 FoFCou: FMM=F IPFlag=           0 FMFlag=      100000 FMFlg1=           0
         NFxFlg=           0 DoJE=T BraDBF=F KetDBF=T FulRan=T
         Omega=  0.000000  0.000000  1.000000  0.000000  0.000000 ICntrl=     500 IOpCl=  0
         NMat0=    1 NMatS0=    1 NMatT0=    0 NMatD0=    1 NMtDS0=    0 NMtDT0=    0
         I1Cent=           4 NGrid=           0.
 Petite list used in FoFCou.
 Initial guess orbital symmetries:
       Occupied  (A) (A) (A) (A) (A) (A) (A) (A) (A) (A) (A) (A)
                 (A) (A) (A) (A) (A) (A) (A) (A) (A) (A) (A) (A)
                 (A) (A) (A) (A) (A) (A) (A) (A) (A) (A) (A) (A)
                 (A) (A) (A) (A) (A) (A) (A) (A) (A) (A) (A) (A)
                 (A) (A) (A) (A) (A) (A) (A) (A) (A) (A) (A) (A)
                 (A) (A) (A) (A) (A) (A) (A) (A) (A) (A)
       Virtual   (A) (A) (A) (A) (A) (A) (A) (A) (A) (A) (A) (A)
                 (A) (A) (A) (A) (A) (A) (A) (A) (A) (A) (A) (A)
                 (A) (A) (A) (A) (A) (A) (A) (A) (A) (A) (A) (A)
                 (A) (A) (A) (A) (A) (A) (A) (A) (A) (A) (A) (A)
                 (A) (A) (A) (A) (A) (A) (A) (A) (A) (A) (A) (A)
                 (A) (A) (A) (A) (A) (A) (A) (A) (A) (A) (A) (A)
                 (A) (A) (A) (A) (A) (A) (A) (A) (A) (A) (A) (A)
                 (A) (A) (A) (A) (A) (A) (A) (A) (A) (A) (A) (A)
                 (A) (A) (A) (A) (A) (A) (A) (A) (A) (A) (A) (A)
                 (A) (A) (A) (A) (A) (A) (A) (A) (A) (A) (A) (A)
                 (A) (A) (A) (A) (A) (A) (A)
 The electronic state of the initial guess is 1-A.
 Requested convergence on RMS density matrix=1.00D-08 within 128 cycles.
 Requested convergence on MAX density matrix=1.00D-06.
 Requested convergence on             energy=1.00D-06.
 No special actions if energy rises.
 Integral accuracy reduced to 1.0D-05 until final iterations.
 Initial convergence to 1.0D-05 achieved.  Increase integral accuracy.
 SCF Done:  E(RHF) =  -952.470345130     A.U. after   15 cycles
             Convg  =    0.6299D-08             -V/T =  2.0010

 **********************************************************************

            Population analysis using the SCF density.

 **********************************************************************

 Orbital symmetries:
       Occupied  (A) (A) (A) (A) (A) (A) (A) (A) (A) (A) (A) (A)
                 (A) (A) (A) (A) (A) (A) (A) (A) (A) (A) (A) (A)
                 (A) (A) (A) (A) (A) (A) (A) (A) (A) (A) (A) (A)
                 (A) (A) (A) (A) (A) (A) (A) (A) (A) (A) (A) (A)
                 (A) (A) (A) (A) (A) (A) (A) (A) (A) (A) (A) (A)
                 (A) (A) (A) (A) (A) (A) (A) (A) (A) (A)
       Virtual   (A) (A) (A) (A) (A) (A) (A) (A) (A) (A) (A) (A)
                 (A) (A) (A) (A) (A) (A) (A) (A) (A) (A) (A) (A)
                 (A) (A) (A) (A) (A) (A) (A) (A) (A) (A) (A) (A)
                 (A) (A) (A) (A) (A) (A) (A) (A) (A) (A) (A) (A)
                 (A) (A) (A) (A) (A) (A) (A) (A) (A) (A) (A) (A)
                 (A) (A) (A) (A) (A) (A) (A) (A) (A) (A) (A) (A)
                 (A) (A) (A) (A) (A) (A) (A) (A) (A) (A) (A) (A)
                 (A) (A) (A) (A) (A) (A) (A) (A) (A) (A) (A) (A)
                 (A) (A) (A) (A) (A) (A) (A) (A) (A) (A) (A) (A)
                 (A) (A) (A) (A) (A) (A) (A) (A) (A) (A) (A) (A)
                 (A) (A) (A) (A) (A) (A) (A)
 The electronic state is 1-A.
 Alpha  occ. eigenvalues --  -20.48460 -20.46643 -20.44451 -20.41307 -15.57036
 Alpha  occ. eigenvalues --  -15.55190 -15.50620 -15.48722 -15.47501 -11.34333
 Alpha  occ. eigenvalues --  -11.29958 -11.29094 -11.25486 -11.24587 -11.24460
 Alpha  occ. eigenvalues --  -11.23385 -11.22767 -11.19876 -11.17928  -1.49138
 Alpha  occ. eigenvalues --   -1.46447  -1.39436  -1.38639  -1.36475  -1.33894
 Alpha  occ. eigenvalues --   -1.21454  -1.20148  -1.17748  -1.08639  -1.05096
 Alpha  occ. eigenvalues --   -1.01982  -0.93552  -0.91504  -0.89205  -0.86222
 Alpha  occ. eigenvalues --   -0.83944  -0.80000  -0.77995  -0.75497  -0.72869
 Alpha  occ. eigenvalues --   -0.71891  -0.70850  -0.69893  -0.69443  -0.67608
 Alpha  occ. eigenvalues --   -0.67099  -0.65795  -0.64395  -0.63194  -0.62875
 Alpha  occ. eigenvalues --   -0.61767  -0.60848  -0.59638  -0.58642  -0.55906
 Alpha  occ. eigenvalues --   -0.54625  -0.53009  -0.52252  -0.50319  -0.47267
 Alpha  occ. eigenvalues --   -0.46261  -0.45077  -0.43703  -0.43351  -0.42180
 Alpha  occ. eigenvalues --   -0.41839  -0.41551  -0.39370  -0.38310  -0.27704
 Alpha virt. eigenvalues --    0.12033   0.18594   0.21258   0.22272   0.23263
 Alpha virt. eigenvalues --    0.23514   0.25181   0.25313   0.25848   0.29347
 Alpha virt. eigenvalues --    0.30438   0.32047   0.32932   0.34732   0.35144
 Alpha virt. eigenvalues --    0.35680   0.37848   0.38051   0.40543   0.41852
 Alpha virt. eigenvalues --    0.41931   0.43662   0.44721   0.47167   0.47637
 Alpha virt. eigenvalues --    0.48968   0.51732   0.53838   0.54510   0.55048
 Alpha virt. eigenvalues --    0.57196   0.57406   0.62583   0.64626   0.68152
 Alpha virt. eigenvalues --    0.70661   0.78261   0.82987   0.89274   0.90760
 Alpha virt. eigenvalues --    0.93066   0.95591   0.96016   0.96908   0.97903
 Alpha virt. eigenvalues --    0.99295   0.99342   1.00759   1.01308   1.01663
 Alpha virt. eigenvalues --    1.03184   1.04163   1.05222   1.06232   1.08386
 Alpha virt. eigenvalues --    1.08877   1.10176   1.11199   1.13897   1.16999
 Alpha virt. eigenvalues --    1.17711   1.19554   1.21474   1.23122   1.23715
 Alpha virt. eigenvalues --    1.24626   1.26835   1.27826   1.30065   1.31113
 Alpha virt. eigenvalues --    1.31927   1.32551   1.34177   1.35793   1.36693
 Alpha virt. eigenvalues --    1.38597   1.40253   1.42553   1.43785   1.44308
 Alpha virt. eigenvalues --    1.45260   1.51651   1.54223   1.55354   1.55849
 Alpha virt. eigenvalues --    1.57242   1.60852   1.62564   1.66039   1.68808
 Alpha virt. eigenvalues --    1.71663   1.72562   1.75469   1.78427   1.80148
 Alpha virt. eigenvalues --    1.85716   1.91123   1.92785   1.96000   1.97337
 Alpha virt. eigenvalues --    1.97852   1.98461   2.02170   2.03354   2.05383
 Alpha virt. eigenvalues --    2.07098   2.12996   2.14482   2.17907   2.20931
 Alpha virt. eigenvalues --    2.24525   2.29178   2.34898   2.38644   2.41708
 Alpha virt. eigenvalues --    2.44360   2.55591   2.84475   3.00278   3.06021
 Alpha virt. eigenvalues --    3.23313   3.25278   3.45318   3.55556   3.66676
 Alpha virt. eigenvalues --    3.77419   4.03046
          Condensed to atoms (all electrons):
              1          2          3          4          5          6
     1  O    8.106895   0.716343  -0.152643  -0.003083  -0.000053  -0.000007
     2  C    0.716343   4.381291   0.024616  -0.046984   0.002144   0.003811
     3  C   -0.152643   0.024616   6.085441   0.282193  -0.215549  -0.034919
     4  N   -0.003083  -0.046984   0.282193   7.109199   0.543152  -0.119101
     5  C   -0.000053   0.002144  -0.215549   0.543152   4.869093   0.181244
     6  N   -0.000007   0.003811  -0.034919  -0.119101   0.181244   7.889388
     7  C    0.000000   0.000005   0.004165   0.001124  -0.022159   0.155743
     8  C    0.000000   0.000000  -0.000245  -0.000009  -0.008124  -0.054735
     9  C    0.000000   0.000000   0.000000   0.000001   0.000400   0.003225
    10  O    0.000000   0.000000   0.000000   0.000000   0.000000  -0.000004
    11  C    0.000000   0.000000   0.000002   0.000000  -0.000034   0.004148
    12  C    0.000000   0.000000   0.000000   0.000000  -0.000002  -0.000051
    13  O    0.000000   0.000000   0.000000   0.000000   0.000000   0.000000
    14  O    0.000000   0.000000  -0.000030   0.000006   0.002601  -0.037307
    15  C    0.005063  -0.052653   0.203320  -0.084581  -0.135412   0.166952
    16  N    0.000020  -0.018923  -0.057662   0.005478   0.002105  -0.034987
    17  C   -0.000026  -0.063184   0.014138   0.000461   0.000133   0.000430
    18  N   -0.000005  -0.000004  -0.000246   0.000000   0.000000  -0.000002
    19  N   -0.108622   0.063124  -0.203223   0.000967  -0.000158   0.000072
    20  H    0.000000  -0.000003   0.002918  -0.021116   0.389854  -0.041713
    21  H    0.000000   0.000001   0.000519  -0.000094   0.001432  -0.033637
    22  H    0.000000   0.000000  -0.000001   0.000000   0.000124   0.002203
    23  H    0.000000   0.000000  -0.000038  -0.000066   0.002583  -0.004381
    24  H    0.000000   0.000000   0.000000   0.000000   0.000127  -0.000182
    25  H    0.000000   0.000000   0.000000   0.000000   0.000000  -0.000002
    26  H    0.000000   0.000000   0.000000   0.000000   0.000016  -0.000263
    27  H    0.000000   0.000000   0.000000   0.000000   0.000000   0.000000
    28  H    0.000000   0.000000   0.000000   0.000000   0.000001  -0.000001
    29  H    0.000000   0.000000   0.000000   0.000000   0.000000   0.000000
    30  H    0.000000  -0.000013   0.000025   0.000000   0.000000   0.000000
    31  H    0.000000  -0.000011   0.000019   0.000000   0.000000   0.000000
    32  H    0.001422  -0.018284   0.006177  -0.000003   0.000003   0.000002
              7          8          9         10         11         12
     1  O    0.000000   0.000000   0.000000   0.000000   0.000000   0.000000
     2  C    0.000005   0.000000   0.000000   0.000000   0.000000   0.000000
     3  C    0.004165  -0.000245   0.000000   0.000000   0.000002   0.000000
     4  N    0.001124  -0.000009   0.000001   0.000000   0.000000   0.000000
     5  C   -0.022159  -0.008124   0.000400   0.000000  -0.000034  -0.000002
     6  N    0.155743  -0.054735   0.003225  -0.000004   0.004148  -0.000051
     7  C    5.013515   0.148773  -0.088629   0.003266  -0.176928   0.005568
     8  C    0.148773   5.859301   0.160540  -0.042213  -0.102480   0.004496
     9  C   -0.088629   0.160540   5.416365   0.186392   0.092689  -0.068390
    10  O    0.003266  -0.042213   0.186392   8.371709  -0.054009   0.000446
    11  C   -0.176928  -0.102480   0.092689  -0.054009   5.740947   0.176372
    12  C    0.005568   0.004496  -0.068390   0.000446   0.176372   5.084487
    13  O   -0.000063  -0.000056   0.002538  -0.000001  -0.062477   0.218353
    14  O    0.252659  -0.075741  -0.061348   0.000651   0.174565  -0.027145
    15  C   -0.032169   0.003003  -0.000045   0.000000  -0.000035   0.000001
    16  N   -0.000341   0.000055   0.000000   0.000000   0.000005   0.000000
    17  C   -0.000025   0.000000   0.000000   0.000000   0.000000   0.000000
    18  N    0.000000   0.000000   0.000000   0.000000   0.000000   0.000000
    19  N    0.000003   0.000000   0.000000   0.000000   0.000000   0.000000
    20  H    0.000415  -0.000516   0.000189   0.000000  -0.000075  -0.000001
    21  H    0.384789  -0.063867   0.001964   0.000010  -0.003164  -0.000184
    22  H   -0.037467   0.373890  -0.047464  -0.000563   0.000495  -0.000057
    23  H   -0.032947   0.380281  -0.038595   0.001279   0.005913  -0.000092
    24  H    0.006597  -0.057729   0.388285  -0.031503  -0.074201  -0.002167
    25  H    0.000024  -0.007815  -0.048930   0.277604   0.005037  -0.000143
    26  H   -0.006731  -0.005262  -0.058527   0.005738   0.364651  -0.043163
    27  H   -0.000174   0.000002   0.003369   0.003960  -0.074627   0.369274
    28  H   -0.000146  -0.000203  -0.000275  -0.000037  -0.060422   0.385415
    29  H   -0.000023   0.000006  -0.000083   0.000001   0.000030  -0.057313
    30  H    0.000000   0.000000   0.000000   0.000000   0.000000   0.000000
    31  H    0.000000   0.000000   0.000000   0.000000   0.000000   0.000000
    32  H    0.000000   0.000000   0.000000   0.000000   0.000000   0.000000
             13         14         15         16         17         18
     1  O    0.000000   0.000000   0.005063   0.000020  -0.000026  -0.000005
     2  C    0.000000   0.000000  -0.052653  -0.018923  -0.063184  -0.000004
     3  C    0.000000  -0.000030   0.203320  -0.057662   0.014138  -0.000246
     4  N    0.000000   0.000006  -0.084581   0.005478   0.000461   0.000000
     5  C    0.000000   0.002601  -0.135412   0.002105   0.000133   0.000000
     6  N    0.000000  -0.037307   0.166952  -0.034987   0.000430  -0.000002
     7  C   -0.000063   0.252659  -0.032169  -0.000341  -0.000025   0.000000
     8  C   -0.000056  -0.075741   0.003003   0.000055   0.000000   0.000000
     9  C    0.002538  -0.061348  -0.000045   0.000000   0.000000   0.000000
    10  O   -0.000001   0.000651   0.000000   0.000000   0.000000   0.000000
    11  C   -0.062477   0.174565  -0.000035   0.000005   0.000000   0.000000
    12  C    0.218353  -0.027145   0.000001   0.000000   0.000000   0.000000
    13  O    8.305155   0.000227   0.000000   0.000000   0.000000   0.000000
    14  O    0.000227   8.470154   0.000706   0.000019   0.000000   0.000000
    15  C    0.000000   0.000706   4.950128   0.234814  -0.121590   0.001029
    16  N    0.000000   0.000019   0.234814   7.300510   0.533445  -0.059749
    17  C    0.000000   0.000000  -0.121590   0.533445   4.186393   0.345618
    18  N    0.000000   0.000000   0.001029  -0.059749   0.345618   7.014209
    19  N    0.000000   0.000000   0.010097  -0.093142   0.174802  -0.070844
    20  H    0.000000   0.000277   0.001854  -0.000015   0.000002   0.000000
    21  H    0.000000  -0.042101  -0.002824   0.005584  -0.000068  -0.000006
    22  H    0.000000   0.002317  -0.000075   0.000002   0.000000   0.000000
    23  H    0.000000   0.001501  -0.000111  -0.000002   0.000000   0.000000
    24  H    0.000005   0.004603   0.000000   0.000000   0.000000   0.000000
    25  H    0.000000  -0.000047   0.000000   0.000000   0.000000   0.000000
    26  H    0.000213  -0.034334  -0.000009  -0.000002   0.000000   0.000000
    27  H   -0.037441   0.001672   0.000000   0.000000   0.000000   0.000000
    28  H   -0.025450   0.000607   0.000000   0.000000   0.000000   0.000000
    29  H    0.272659   0.000030   0.000000   0.000000   0.000000   0.000000
    30  H    0.000000   0.000000  -0.000031   0.000248  -0.027966   0.337211
    31  H    0.000000   0.000000  -0.000059   0.000842  -0.036587   0.334850
    32  H    0.000000   0.000000  -0.000695   0.002125  -0.018332   0.001562
             19         20         21         22         23         24
     1  O   -0.108622   0.000000   0.000000   0.000000   0.000000   0.000000
     2  C    0.063124  -0.000003   0.000001   0.000000   0.000000   0.000000
     3  C   -0.203223   0.002918   0.000519  -0.000001  -0.000038   0.000000
     4  N    0.000967  -0.021116  -0.000094   0.000000  -0.000066   0.000000
     5  C   -0.000158   0.389854   0.001432   0.000124   0.002583   0.000127
     6  N    0.000072  -0.041713  -0.033637   0.002203  -0.004381  -0.000182
     7  C    0.000003   0.000415   0.384789  -0.037467  -0.032947   0.006597
     8  C    0.000000  -0.000516  -0.063867   0.373890   0.380281  -0.057729
     9  C    0.000000   0.000189   0.001964  -0.047464  -0.038595   0.388285
    10  O    0.000000   0.000000   0.000010  -0.000563   0.001279  -0.031503
    11  C    0.000000  -0.000075  -0.003164   0.000495   0.005913  -0.074201
    12  C    0.000000  -0.000001  -0.000184  -0.000057  -0.000092  -0.002167
    13  O    0.000000   0.000000   0.000000   0.000000   0.000000   0.000005
    14  O    0.000000   0.000277  -0.042101   0.002317   0.001501   0.004603
    15  C    0.010097   0.001854  -0.002824  -0.000075  -0.000111   0.000000
    16  N   -0.093142  -0.000015   0.005584   0.000002  -0.000002   0.000000
    17  C    0.174802   0.000002  -0.000068   0.000000   0.000000   0.000000
    18  N   -0.070844   0.000000  -0.000006   0.000000   0.000000   0.000000
    19  N    7.987843   0.000000   0.000004   0.000000   0.000000   0.000000
    20  H    0.000000   0.394945  -0.000025   0.000011  -0.000353   0.000328
    21  H    0.000004  -0.000025   0.469357  -0.001754   0.002014   0.000003
    22  H    0.000000   0.000011  -0.001754   0.492773  -0.011207   0.003094
    23  H    0.000000  -0.000353   0.002014  -0.011207   0.440104  -0.003250
    24  H    0.000000   0.000328   0.000003   0.003094  -0.003250   0.524179
    25  H    0.000000   0.000000  -0.000024   0.005037   0.000463   0.002719
    26  H    0.000000   0.000002   0.009380   0.001222   0.000082   0.003427
    27  H    0.000000   0.000000   0.000014   0.000004  -0.000001   0.000586
    28  H    0.000000   0.000001   0.000008  -0.000001   0.000007   0.002919
    29  H    0.000000   0.000000  -0.000001   0.000000   0.000000   0.000002
    30  H    0.001537   0.000000   0.000001   0.000000   0.000000   0.000000
    31  H    0.001171   0.000000   0.000000   0.000000   0.000000   0.000000
    32  H    0.314196   0.000000   0.000000   0.000000   0.000000   0.000000
             25         26         27         28         29         30
     1  O    0.000000   0.000000   0.000000   0.000000   0.000000   0.000000
     2  C    0.000000   0.000000   0.000000   0.000000   0.000000  -0.000013
     3  C    0.000000   0.000000   0.000000   0.000000   0.000000   0.000025
     4  N    0.000000   0.000000   0.000000   0.000000   0.000000   0.000000
     5  C    0.000000   0.000016   0.000000   0.000001   0.000000   0.000000
     6  N   -0.000002  -0.000263   0.000000  -0.000001   0.000000   0.000000
     7  C    0.000024  -0.006731  -0.000174  -0.000146  -0.000023   0.000000
     8  C   -0.007815  -0.005262   0.000002  -0.000203   0.000006   0.000000
     9  C   -0.048930  -0.058527   0.003369  -0.000275  -0.000083   0.000000
    10  O    0.277604   0.005738   0.003960  -0.000037   0.000001   0.000000
    11  C    0.005037   0.364651  -0.074627  -0.060422   0.000030   0.000000
    12  C   -0.000143  -0.043163   0.369274   0.385415  -0.057313   0.000000
    13  O    0.000000   0.000213  -0.037441  -0.025450   0.272659   0.000000
    14  O   -0.000047  -0.034334   0.001672   0.000607   0.000030   0.000000
    15  C    0.000000  -0.000009   0.000000   0.000000   0.000000  -0.000031
    16  N    0.000000  -0.000002   0.000000   0.000000   0.000000   0.000248
    17  C    0.000000   0.000000   0.000000   0.000000   0.000000  -0.027966
    18  N    0.000000   0.000000   0.000000   0.000000   0.000000   0.337211
    19  N    0.000000   0.000000   0.000000   0.000000   0.000000   0.001537
    20  H    0.000000   0.000002   0.000000   0.000001   0.000000   0.000000
    21  H   -0.000024   0.009380   0.000014   0.000008  -0.000001   0.000001
    22  H    0.005037   0.001222   0.000004  -0.000001   0.000000   0.000000
    23  H    0.000463   0.000082  -0.000001   0.000007   0.000000   0.000000
    24  H    0.002719   0.003427   0.000586   0.002919   0.000002   0.000000
    25  H    0.373488   0.000177  -0.000043   0.000002   0.000000   0.000000
    26  H    0.000177   0.547855  -0.000547   0.003049   0.002480   0.000000
    27  H   -0.000043  -0.000547   0.572519  -0.027484  -0.009396   0.000000
    28  H    0.000002   0.003049  -0.027484   0.493068   0.004859   0.000000
    29  H    0.000000   0.002480  -0.009396   0.004859   0.416386   0.000000
    30  H    0.000000   0.000000   0.000000   0.000000   0.000000   0.345902
    31  H    0.000000   0.000000   0.000000   0.000000   0.000000  -0.020606
    32  H    0.000000   0.000000   0.000000   0.000000   0.000000   0.000092
             31         32
     1  O    0.000000   0.001422
     2  C   -0.000011  -0.018284
     3  C    0.000019   0.006177
     4  N    0.000000  -0.000003
     5  C    0.000000   0.000003
     6  N    0.000000   0.000002
     7  C    0.000000   0.000000
     8  C    0.000000   0.000000
     9  C    0.000000   0.000000
    10  O    0.000000   0.000000
    11  C    0.000000   0.000000
    12  C    0.000000   0.000000
    13  O    0.000000   0.000000
    14  O    0.000000   0.000000
    15  C   -0.000059  -0.000695
    16  N    0.000842   0.002125
    17  C   -0.036587  -0.018332
    18  N    0.334850   0.001562
    19  N    0.001171   0.314196
    20  H    0.000000   0.000000
    21  H    0.000000   0.000000
    22  H    0.000000   0.000000
    23  H    0.000000   0.000000
    24  H    0.000000   0.000000
    25  H    0.000000   0.000000
    26  H    0.000000   0.000000
    27  H    0.000000   0.000000
    28  H    0.000000   0.000000
    29  H    0.000000   0.000000
    30  H   -0.020606   0.000092
    31  H    0.374801   0.000882
    32  H    0.000882   0.321336
 Mulliken atomic charges:
              1
     1  O   -0.565302
     2  C    1.008724
     3  C    0.041021
     4  N   -0.667544
     5  C    0.386479
     6  N   -1.045926
     7  C    0.421156
     8  C   -0.511353
     9  C    0.156329
    10  O   -0.722728
    11  C    0.043597
    12  C   -0.045705
    13  O   -0.673663
    14  O   -0.634541
    15  C    0.853322
    16  N   -0.820428
    17  C    1.012355
    18  N   -0.903623
    19  N   -1.077826
    20  H    0.273021
    21  H    0.272672
    22  H    0.217419
    23  H    0.256814
    24  H    0.232157
    25  H    0.392453
    26  H    0.210546
    27  H    0.198312
    28  H    0.224085
    29  H    0.370363
    30  H    0.363599
    31  H    0.344697
    32  H    0.389519
 Sum of Mulliken atomic charges =   0.00000
 Mulliken charges with hydrogens summed into heavy atoms:
              1
     1  O   -0.565302
     2  C    1.008724
     3  C    0.041021
     4  N   -0.667544
     5  C    0.659500
     6  N   -1.045926
     7  C    0.693827
     8  C   -0.037121
     9  C    0.388486
    10  O   -0.330275
    11  C    0.254144
    12  C    0.376692
    13  O   -0.303300
    14  O   -0.634541
    15  C    0.853322
    16  N   -0.820428
    17  C    1.012355
    18  N   -0.195327
    19  N   -0.688308
 Sum of Mulliken charges with hydrogens summed into heavy atoms =   0.00000
 Electronic spatial extent (au):  <R**2>=           6219.6818
 Charge=              0.0000 electrons
 Dipole moment (field-independent basis, Debye):
    X=              1.3762    Y=              6.1889    Z=              6.0634  Tot=              8.7727
 Quadrupole moment (field-independent basis, Debye-Ang):
   XX=           -102.7697   YY=           -106.6426   ZZ=           -112.0140
   XY=            -26.1711   XZ=              3.7247   YZ=             -1.1300
 Traceless Quadrupole moment (field-independent basis, Debye-Ang):
   XX=              4.3724   YY=              0.4995   ZZ=             -4.8719
   XY=            -26.1711   XZ=              3.7247   YZ=             -1.1300
 Octapole moment (field-independent basis, Debye-Ang**2):
  XXX=            -47.8541  YYY=             78.6195  ZZZ=             49.1032  XYY=             33.4280
  XXY=            151.1517  XXZ=             30.8639  XZZ=             -8.4208  YZZ=              7.2586
  YYZ=              9.5633  XYZ=             13.5944
 Hexadecapole moment (field-independent basis, Debye-Ang**3):
 XXXX=          -5916.0338 YYYY=          -1018.7381 ZZZZ=           -607.9162 XXXY=           -403.2495
 XXXZ=           -112.9280 YYYX=           -182.1565 YYYZ=            -20.6674 ZZZX=            152.1429
 ZZZY=             24.2489 XXYY=          -1033.5921 XXZZ=          -1161.6640 YYZZ=           -269.4339
 XXYZ=            -37.0632 YYXZ=            -77.8460 ZZXY=            -59.7854
 N-N= 1.484610328838D+03 E-N=-5.203710962398D+03  KE= 9.515167064312D+02
 Calling FoFJK, ICntrl=      2127 FMM=F ISym2X=0 I1Cent= 0 IOpClX= 0 NMat=1 NMatS=1 NMatT=0.
 ***** Axes restored to original set *****
 -------------------------------------------------------------------
 Center     Atomic                   Forces (Hartrees/Bohr)
 Number     Number              X              Y              Z
 -------------------------------------------------------------------
      1        8           0.213446993    0.256918954   -0.065435796
      2        6          -0.170423692   -0.165275242    0.045649621
      3        6          -0.089271160   -0.047731106    0.019951665
      4        7          -0.053628034    0.032676169    0.004477138
      5        6           0.039942499    0.074291096   -0.017538346
      6        7          -0.000625628   -0.070982939    0.005740881
      7        6           0.061939201    0.001473613    0.018179614
      8        6           0.002698067    0.005110576    0.026990569
      9        6           0.033380647   -0.003167310   -0.009955895
     10        8          -0.038993474   -0.014027526    0.044427538
     11        6          -0.064151045    0.019041414    0.014194779
     12        6          -0.022343882    0.001964024    0.030672851
     13        8          -0.002709745   -0.034363459   -0.036948854
     14        8           0.008986693    0.004549325   -0.041424132
     15        6           0.074013352    0.012654649   -0.012710448
     16        7           0.041908745   -0.056248725    0.001569207
     17        6          -0.076096588   -0.034465452    0.019748890
     18        7           0.016323852    0.013491269   -0.015006468
     19        7           0.053746651   -0.066312951   -0.003690469
     20        1           0.011564234   -0.009003803   -0.002323875
     21        1           0.007739411    0.016107450   -0.002681553
     22        1           0.000785435    0.018728040   -0.012313719
     23        1           0.001469339   -0.016074871    0.002690880
     24        1          -0.008422569   -0.010094688    0.002408951
     25        1          -0.006535705    0.005817342   -0.015213094
     26        1           0.004664096    0.003108613    0.000433610
     27        1           0.009561614    0.018302878    0.001480563
     28        1           0.010510468   -0.018980352   -0.004622262
     29        1           0.003992707    0.017921461   -0.012241885
     30        1          -0.008065412    0.020493507   -0.026174371
     31        1          -0.018968478    0.015614150    0.033457868
     32        1          -0.036438592    0.008463893    0.006206544
 -------------------------------------------------------------------
 Cartesian Forces:  Max     0.256918954 RMS     0.051576698

 GradGradGradGradGradGradGradGradGradGradGradGradGradGradGradGradGradGrad
 Berny optimization.
 Internal  Forces:  Max     0.339539308 RMS     0.030557154
 Search for a local minimum.
 Step number   1 out of a maximum of  192
 All quantities printed in internal units (Hartrees-Bohrs-Radians)
 Mixed Optimization -- RFO/linear search
 Second derivative matrix not updated -- first step.
 ITU=  0
     Eigenvalues ---    0.00553   0.00708   0.00879   0.01141   0.01141
     Eigenvalues ---    0.01436   0.01733   0.01859   0.01909   0.02107
     Eigenvalues ---    0.02200   0.02230   0.02256   0.02329   0.02344
     Eigenvalues ---    0.02349   0.02399   0.02491   0.02565   0.03214
     Eigenvalues ---    0.04172   0.04684   0.05274   0.05284   0.05335
     Eigenvalues ---    0.05607   0.05852   0.06113   0.06206   0.06299
     Eigenvalues ---    0.06488   0.07847   0.08011   0.08330   0.11311
     Eigenvalues ---    0.11375   0.13801   0.14154   0.16000   0.16000
     Eigenvalues ---    0.16000   0.16000   0.16000   0.16000   0.16091
     Eigenvalues ---    0.18682   0.20168   0.22017   0.23459   0.23661
     Eigenvalues ---    0.25000   0.25000   0.25000   0.25000   0.25000
     Eigenvalues ---    0.25000   0.26826   0.28806   0.29437   0.31924
     Eigenvalues ---    0.32063   0.32602   0.32896   0.33897   0.34043
     Eigenvalues ---    0.34464   0.34926   0.35947   0.36782   0.39366
     Eigenvalues ---    0.40089   0.40400   0.40483   0.42656   0.44063
     Eigenvalues ---    0.44515   0.45347   0.47786   0.49208   0.50052
     Eigenvalues ---    0.51243   0.51321   0.51662   0.52665   0.53199
     Eigenvalues ---    0.55327   0.55410   0.56331   0.59068   1.85716
 RFO step:  Lambda=-1.62174513D-01 EMin= 5.52502826D-03
 Linear search not attempted -- first point.
 Maximum step size (   0.300) exceeded in Quadratic search.
    -- Step size scaled by   0.639
 Iteration  1 RMS(Cart)=  0.04705891 RMS(Int)=  0.00074817
 Iteration  2 RMS(Cart)=  0.00117482 RMS(Int)=  0.00012047
 Iteration  3 RMS(Cart)=  0.00000111 RMS(Int)=  0.00012047
 Iteration  4 RMS(Cart)=  0.00000000 RMS(Int)=  0.00012047
 Variable       Old X    -DE/DX   Delta X   Delta X   Delta X     New X
                                 (Linear)    (Quad)   (Total)
    R1        2.06239   0.33954   0.00000   0.10749   0.10749   2.16988
    R2        2.64308   0.04321   0.00000   0.04725   0.04738   2.69047
    R3        2.54921   0.06359   0.00000   0.05904   0.05905   2.60826
    R4        2.53467   0.03366   0.00000   0.02856   0.02862   2.56329
    R5        2.63183  -0.01385   0.00000  -0.01424  -0.01409   2.61774
    R6        2.56118  -0.05251   0.00000  -0.04803  -0.04804   2.51314
    R7        2.50263   0.05803   0.00000   0.04884   0.04877   2.55140
    R8        2.04165  -0.01474   0.00000  -0.01806  -0.01806   2.02359
    R9        2.76175  -0.00998   0.00000  -0.01204  -0.01204   2.74971
   R10        2.55326  -0.00085   0.00000  -0.00011  -0.00014   2.55312
   R11        2.87661   0.02766   0.00000   0.03811   0.03817   2.91478
   R12        2.61228   0.04426   0.00000   0.04507   0.04494   2.65723
   R13        2.07505  -0.01311   0.00000  -0.01673  -0.01673   2.05832
   R14        2.87759   0.03386   0.00000   0.04401   0.04413   2.92172
   R15        2.10729  -0.02152   0.00000  -0.02849  -0.02849   2.07880
   R16        2.07258  -0.01361   0.00000  -0.01732  -0.01732   2.05527
   R17        2.58631   0.05153   0.00000   0.04884   0.04884   2.63515
   R18        2.90069   0.00960   0.00000   0.01156   0.01147   2.91216
   R19        2.06553  -0.00820   0.00000  -0.01034  -0.01034   2.05520
   R20        1.84925  -0.01726   0.00000  -0.01625  -0.01625   1.83299
   R21        2.84282   0.01208   0.00000   0.01604   0.01604   2.85886
   R22        2.61809   0.04476   0.00000   0.04675   0.04678   2.66487
   R23        2.05794  -0.00230   0.00000  -0.00287  -0.00287   2.05507
   R24        2.62168   0.05025   0.00000   0.05019   0.05019   2.67186
   R25        2.09756  -0.01468   0.00000  -0.01922  -0.01922   2.07834
   R26        2.09234  -0.02012   0.00000  -0.02619  -0.02619   2.06616
   R27        1.86513  -0.02042   0.00000  -0.01970  -0.01970   1.84543
   R28        2.53550   0.01680   0.00000   0.01248   0.01246   2.54796
   R29        2.54171  -0.07310   0.00000  -0.06700  -0.06713   2.47458
   R30        2.72423  -0.04988   0.00000  -0.05737  -0.05737   2.66686
   R31        2.55530   0.01770   0.00000   0.01584   0.01573   2.57102
   R32        1.94796  -0.03296   0.00000  -0.03579  -0.03579   1.91217
   R33        1.97713  -0.04151   0.00000  -0.04687  -0.04687   1.93026
   R34        1.97602  -0.03775   0.00000  -0.04256  -0.04256   1.93346
    A1        2.12258   0.04402   0.00000   0.06403   0.06394   2.18652
    A2        2.15565  -0.00487   0.00000  -0.01179  -0.01188   2.14377
    A3        2.00495  -0.03915   0.00000  -0.05224  -0.05206   1.95289
    A4        2.29182  -0.01198   0.00000  -0.01994  -0.02013   2.27169
    A5        2.13130  -0.01946   0.00000  -0.02465  -0.02445   2.10685
    A6        1.86007   0.03144   0.00000   0.04459   0.04458   1.90465
    A7        1.87491  -0.01651   0.00000  -0.02793  -0.02782   1.84709
    A8        1.93436   0.00514   0.00000   0.00972   0.00969   1.94405
    A9        2.17539  -0.00241   0.00000  -0.00454  -0.00452   2.17087
   A10        2.17343  -0.00273   0.00000  -0.00518  -0.00517   2.16826
   A11        2.24441  -0.00452   0.00000  -0.00820  -0.00817   2.23624
   A12        1.86007   0.00489   0.00000   0.00995   0.00989   1.86996
   A13        2.17870  -0.00037   0.00000  -0.00175  -0.00173   2.17698
   A14        1.92893   0.02291   0.00000   0.03974   0.03978   1.96872
   A15        1.94312  -0.00287   0.00000  -0.00562  -0.00540   1.93772
   A16        1.92066  -0.01209   0.00000  -0.02464  -0.02473   1.89593
   A17        1.86307  -0.01397   0.00000  -0.02118  -0.02125   1.84182
   A18        1.91309  -0.00169   0.00000  -0.00110  -0.00087   1.91222
   A19        1.89376   0.00754   0.00000   0.01276   0.01263   1.90640
   A20        1.77123   0.01038   0.00000   0.01556   0.01563   1.78686
   A21        1.91170  -0.00109   0.00000  -0.00125  -0.00144   1.91026
   A22        1.95663  -0.00443   0.00000  -0.00597  -0.00599   1.95063
   A23        1.90827   0.00006   0.00000   0.00399   0.00398   1.91224
   A24        1.93953  -0.00129   0.00000   0.00115   0.00111   1.94064
   A25        1.96653  -0.00239   0.00000  -0.01067  -0.01068   1.95585
   A26        1.97583   0.01087   0.00000   0.02783   0.02761   2.00344
   A27        1.74027   0.00715   0.00000   0.01133   0.01098   1.75125
   A28        1.88028  -0.00444   0.00000  -0.00575  -0.00549   1.87479
   A29        1.90889  -0.00064   0.00000   0.00640   0.00600   1.91490
   A30        2.01962  -0.00675   0.00000  -0.02159  -0.02159   1.99804
   A31        1.91832  -0.00447   0.00000  -0.01427  -0.01433   1.90399
   A32        2.00664  -0.00214   0.00000  -0.00424  -0.00424   2.00240
   A33        1.90916   0.01594   0.00000   0.03382   0.03401   1.94317
   A34        1.75245  -0.00084   0.00000   0.00206   0.00184   1.75429
   A35        1.92142  -0.00874   0.00000  -0.02023  -0.02044   1.90098
   A36        1.97594  -0.00299   0.00000  -0.00554  -0.00581   1.97012
   A37        1.91110  -0.00018   0.00000   0.00145   0.00155   1.91265
   A38        1.98717  -0.00252   0.00000  -0.01005  -0.01005   1.97712
   A39        1.89982   0.02233   0.00000   0.03816   0.03807   1.93790
   A40        1.86864  -0.00682   0.00000  -0.00957  -0.01008   1.85856
   A41        1.95950  -0.00682   0.00000  -0.01479  -0.01468   1.94482
   A42        1.87395   0.00515   0.00000   0.02041   0.02020   1.89416
   A43        1.96961  -0.01494   0.00000  -0.03131  -0.03108   1.93853
   A44        1.88763   0.00163   0.00000  -0.00090  -0.00095   1.88668
   A45        1.87528   0.01557   0.00000   0.03090   0.03090   1.90618
   A46        1.78123   0.01131   0.00000   0.02971   0.02959   1.81082
   A47        1.89536  -0.02496   0.00000  -0.03633  -0.03634   1.85902
   A48        2.06912   0.05074   0.00000   0.07482   0.07491   2.14403
   A49        2.31870  -0.02578   0.00000  -0.03850  -0.03857   2.28013
   A50        2.10415  -0.02555   0.00000  -0.05134  -0.05154   2.05261
   A51        2.09332   0.00079   0.00000   0.00333   0.00344   2.09676
   A52        2.09740   0.01891   0.00000   0.02511   0.02490   2.12230
   A53        2.09246  -0.01970   0.00000  -0.02844  -0.02833   2.06413
   A54        2.14597  -0.00835   0.00000  -0.01656  -0.01661   2.12936
   A55        2.07497   0.00398   0.00000   0.00789   0.00784   2.08281
   A56        2.06224   0.00437   0.00000   0.00867   0.00863   2.07087
   A57        2.15946   0.01451   0.00000   0.02829   0.02823   2.18769
   A58        2.05863  -0.01035   0.00000  -0.02029  -0.02026   2.03837
   A59        2.06510  -0.00416   0.00000  -0.00800  -0.00797   2.05713
    D1       -0.00003   0.00042   0.00000   0.00147   0.00153   0.00150
    D2        3.14153   0.00034   0.00000   0.00118   0.00125  -3.14041
    D3        3.14158  -0.00032   0.00000  -0.00108  -0.00109   3.14049
    D4       -0.00005  -0.00040   0.00000  -0.00137  -0.00137  -0.00142
    D5       -3.14158  -0.00015   0.00000  -0.00050  -0.00043   3.14117
    D6       -0.00007   0.00048   0.00000   0.00164   0.00169   0.00163
    D7       -0.00001   0.00061   0.00000   0.00211   0.00211   0.00211
    D8        3.14151   0.00123   0.00000   0.00425   0.00424  -3.13744
    D9       -3.14159  -0.00016   0.00000  -0.00058  -0.00059   3.14101
   D10        0.00004  -0.00009   0.00000  -0.00033  -0.00033  -0.00029
   D11       -3.14159  -0.00035   0.00000  -0.00121  -0.00120   3.14039
   D12        0.00012  -0.00029   0.00000  -0.00103  -0.00103  -0.00091
   D13       -0.00003  -0.00041   0.00000  -0.00144  -0.00143  -0.00146
   D14       -3.14150  -0.00036   0.00000  -0.00126  -0.00126   3.14042
   D15       -0.00004   0.00058   0.00000   0.00204   0.00203   0.00199
   D16        3.14156   0.00118   0.00000   0.00405   0.00401  -3.13761
   D17        3.14153   0.00029   0.00000   0.00108   0.00103  -3.14063
   D18        0.00002  -0.00083   0.00000  -0.00291  -0.00296  -0.00294
   D19       -0.00007  -0.00030   0.00000  -0.00093  -0.00095  -0.00102
   D20       -3.14158  -0.00142   0.00000  -0.00491  -0.00494   3.13667
   D21       -0.97044   0.00150   0.00000  -0.00170  -0.00178  -0.97222
   D22        1.09696  -0.00295   0.00000  -0.00601  -0.00607   1.09089
   D23       -3.08581  -0.00340   0.00000  -0.01006  -0.00990  -3.09572
   D24        2.17106   0.00280   0.00000   0.00295   0.00286   2.17392
   D25       -2.04473  -0.00164   0.00000  -0.00135  -0.00143  -2.04616
   D26        0.05568  -0.00209   0.00000  -0.00540  -0.00526   0.05042
   D27        0.00000   0.00075   0.00000   0.00264   0.00260   0.00260
   D28        3.14145   0.00070   0.00000   0.00244   0.00242  -3.13931
   D29       -3.14151  -0.00031   0.00000  -0.00116  -0.00122   3.14046
   D30       -0.00006  -0.00037   0.00000  -0.00136  -0.00140  -0.00146
   D31        2.30507  -0.00137   0.00000  -0.00351  -0.00367   2.30139
   D32       -1.96220   0.00335   0.00000   0.00815   0.00801  -1.95419
   D33        0.23418  -0.00382   0.00000  -0.01108  -0.01121   0.22298
   D34        0.18948  -0.00249   0.00000  -0.00655  -0.00654   0.18293
   D35        2.20539   0.00224   0.00000   0.00511   0.00514   2.21054
   D36       -1.88141  -0.00493   0.00000  -0.01412  -0.01408  -1.89548
   D37       -1.85826  -0.00275   0.00000  -0.00929  -0.00928  -1.86753
   D38        0.15766   0.00197   0.00000   0.00237   0.00241   0.16007
   D39        2.35405  -0.00520   0.00000  -0.01686  -0.01681   2.33723
   D40       -2.83377  -0.00614   0.00000  -0.00776  -0.00791  -2.84168
   D41       -0.72722   0.01133   0.00000   0.02410   0.02399  -0.70323
   D42        1.33323   0.00572   0.00000   0.01801   0.01793   1.35116
   D43        2.38243   0.00601   0.00000   0.01508   0.01513   2.39756
   D44        0.35659  -0.00162   0.00000  -0.00983  -0.01004   0.34655
   D45       -1.64486   0.00172   0.00000   0.00295   0.00290  -1.64196
   D46        0.36399   0.00216   0.00000   0.00735   0.00741   0.37140
   D47       -1.66185  -0.00546   0.00000  -0.01756  -0.01777  -1.67962
   D48        2.61988  -0.00213   0.00000  -0.00479  -0.00482   2.61506
   D49       -1.81765   0.00607   0.00000   0.01734   0.01746  -1.80019
   D50        2.43969  -0.00155   0.00000  -0.00757  -0.00772   2.43198
   D51        0.43824   0.00178   0.00000   0.00520   0.00523   0.44347
   D52        0.18602  -0.00383   0.00000  -0.00562  -0.00573   0.18029
   D53        2.10934   0.01025   0.00000   0.02667   0.02668   2.13602
   D54       -1.99652  -0.00145   0.00000  -0.00369  -0.00359  -2.00011
   D55       -2.88595   0.00994   0.00000   0.02498   0.02478  -2.86118
   D56       -0.80368   0.01262   0.00000   0.03353   0.03346  -0.77022
   D57        1.29653   0.00556   0.00000   0.01446   0.01447   1.31100
   D58        1.32129  -0.00564   0.00000  -0.01457  -0.01472   1.30657
   D59       -2.87963  -0.00296   0.00000  -0.00602  -0.00603  -2.88566
   D60       -0.77941  -0.01002   0.00000  -0.02509  -0.02503  -0.80444
   D61       -0.91386   0.00681   0.00000   0.01899   0.01882  -0.89504
   D62        1.16841   0.00949   0.00000   0.02755   0.02750   1.19592
   D63       -3.01456   0.00242   0.00000   0.00848   0.00851  -3.00605
   D64        2.98547  -0.00315   0.00000  -0.00768  -0.00780   2.97767
   D65       -1.27711   0.01058   0.00000   0.03047   0.03038  -1.24673
   D66        0.79195   0.00435   0.00000   0.01485   0.01486   0.80681
   D67        1.04716  -0.00999   0.00000  -0.02730  -0.02732   1.01984
   D68        3.06777   0.00374   0.00000   0.01085   0.01085   3.07862
   D69       -1.14636  -0.00249   0.00000  -0.00477  -0.00467  -1.15103
   D70       -1.19071  -0.00410   0.00000  -0.01064  -0.01063  -1.20135
   D71        0.82990   0.00963   0.00000   0.02752   0.02754   0.85743
   D72        2.89895   0.00340   0.00000   0.01190   0.01202   2.91097
   D73        0.95548  -0.00908   0.00000  -0.02458  -0.02488   0.93060
   D74        2.98856   0.00777   0.00000   0.01370   0.01344   3.00200
   D75       -1.09679   0.00282   0.00000   0.00243   0.00229  -1.09449
   D76        1.34543   0.00272   0.00000   0.00988   0.01032   1.35575
   D77       -0.67176  -0.00339   0.00000  -0.00914  -0.00956  -0.68131
   D78       -2.75013   0.00007   0.00000  -0.00287  -0.00288  -2.75301
   D79       -0.00013   0.00083   0.00000   0.00285   0.00288   0.00274
   D80       -3.14157   0.00089   0.00000   0.00308   0.00309  -3.13848
   D81       -3.14144  -0.00072   0.00000  -0.00248  -0.00245   3.13930
   D82        0.00008  -0.00065   0.00000  -0.00222  -0.00219  -0.00212
   D83       -1.07176   0.00528   0.00000   0.01945   0.01944  -1.05232
   D84        2.06995   0.00038   0.00000   0.00138   0.00137   2.07132
   D85        2.06990   0.00521   0.00000   0.01919   0.01920   2.08910
   D86       -1.07157   0.00030   0.00000   0.00112   0.00113  -1.07044
   D87       -0.00001  -0.00011   0.00000  -0.00041  -0.00038  -0.00039
   D88       -3.14152  -0.00074   0.00000  -0.00255  -0.00253   3.13914
   D89        3.14152  -0.00004   0.00000  -0.00015  -0.00013   3.14138
   D90        0.00000  -0.00067   0.00000  -0.00230  -0.00228  -0.00228
         Item               Value     Threshold  Converged?
 Maximum Force            0.339539     0.000450     NO 
 RMS     Force            0.030557     0.000300     NO 
 Maximum Displacement     0.238391     0.001800     NO 
 RMS     Displacement     0.047177     0.001200     NO 
 Predicted change in Energy=-7.886601D-02
 GradGradGradGradGradGradGradGradGradGradGradGradGradGradGradGradGradGrad

                          Input orientation:                          
 ---------------------------------------------------------------------
 Center     Atomic      Atomic             Coordinates (Angstroms)
 Number     Number       Type             X           Y           Z
 ---------------------------------------------------------------------
      1          8           0        4.684409    2.277631   -0.946839
      2          6           0        3.981314    1.403118   -0.703189
      3          6           0        2.577970    1.511419   -0.488914
      4          7           0        1.770138    2.600680   -0.517859
      5          6           0        0.546813    2.152275   -0.251337
      6          7           0        0.544671    0.817096   -0.050904
      7          6           0       -0.586983   -0.042687    0.261196
      8          6           0       -1.353516    0.411708    1.520190
      9          6           0       -2.823430    0.383087    1.041664
     10          8           0       -3.725592   -0.159222    1.956282
     11          6           0       -2.698542   -0.548072   -0.179881
     12          6           0       -3.914272   -0.448165   -1.074706
     13          8           0       -3.705382   -1.134480   -2.293074
     14          8           0       -1.532097   -0.030356   -0.779884
     15          6           0        1.818029    0.390278   -0.198310
     16          7           0        2.346253   -0.846604   -0.103035
     17          6           0        3.635673   -0.972117   -0.293870
     18          7           0        4.244901   -2.241912   -0.204052
     19          7           0        4.421599    0.100725   -0.580865
     20          1           0       -0.326564    2.770019   -0.203402
     21          1           0       -0.222806   -1.059369    0.403054
[...]
 Alpha virt. eigenvalues --    2.64808   2.67787   2.70905   2.71309   2.72637
 Alpha virt. eigenvalues --    2.73286   2.74808   2.77099   2.80237   2.82094
 Alpha virt. eigenvalues --    2.84720   2.88365   2.91145   2.91708   2.96272
 Alpha virt. eigenvalues --    3.00342   3.01095   3.04283   3.06403   3.19768
 Alpha virt. eigenvalues --    3.31085   3.44671   3.76728   3.78845   3.81444
 Alpha virt. eigenvalues --    3.95819   4.02407   4.06696   4.12443   4.19199
 Alpha virt. eigenvalues --    4.21649   4.26574   4.30432   4.33550   4.35038
 Alpha virt. eigenvalues --    4.41743   4.50627   4.57124   4.63981   4.66998
 Alpha virt. eigenvalues --    4.84794
          Condensed to atoms (all electrons):
              1          2          3          4          5          6
     1  O    8.036949   0.628307  -0.080207  -0.000848   0.000106  -0.000040
     2  C    0.628307   4.437018   0.302827  -0.059736   0.006077   0.004057
     3  C   -0.080207   0.302827   5.175693   0.392398  -0.099414  -0.070911
     4  N   -0.000848  -0.059736   0.392398   6.815308   0.506987  -0.064128
     5  C    0.000106   0.006077  -0.099414   0.506987   4.769584   0.342368
     6  N   -0.000040   0.004057  -0.070911  -0.064128   0.342368   7.135562
     7  C    0.000000   0.000041   0.007559   0.004519  -0.027853   0.176184
     8  C    0.000000  -0.000001  -0.000289  -0.000133   0.002166  -0.040242
     9  C    0.000000   0.000000  -0.000043  -0.000006   0.000597  -0.005472
    10  O    0.000000   0.000000   0.000000   0.000000   0.000000  -0.000003
    11  C    0.000000   0.000000   0.000015  -0.000035   0.000035   0.003242
    12  C    0.000000   0.000000   0.000006  -0.000013  -0.001554   0.000401
    13  O    0.000000   0.000000   0.000000   0.000000  -0.000302  -0.000005
    14  O    0.000000   0.000000  -0.000269   0.000409   0.007111  -0.061107
    15  C    0.003798  -0.043949   0.400357  -0.083654  -0.088049   0.293336
    16  N    0.000029  -0.019023  -0.052516   0.006977   0.003575  -0.068182
    17  C    0.002711  -0.022491  -0.014265   0.000591   0.000175   0.000525
    18  N   -0.000049   0.000149   0.000694   0.000003   0.000002  -0.000110
    19  N   -0.098719   0.193424  -0.099126   0.003048  -0.000195   0.000381
    20  H    0.000000  -0.000171   0.004466  -0.037561   0.379889  -0.052971
    21  H    0.000000   0.000002  -0.000449  -0.000020   0.000720  -0.063331
    22  H    0.000000   0.000000   0.000000   0.000002  -0.000063   0.004206
    23  H    0.000000   0.000010   0.000394  -0.000048  -0.000094  -0.006731
    24  H    0.000000   0.000000  -0.000115  -0.000013   0.000245   0.003066
    25  H    0.000000   0.000000   0.000000   0.000000   0.000001   0.000000
    26  H    0.000000   0.000000  -0.000001   0.000001   0.000061  -0.000294
    27  H    0.000000   0.000000   0.000000   0.000000   0.000006  -0.000021
    28  H    0.000000   0.000000  -0.000026   0.000061   0.002942   0.000000
    29  H    0.000000   0.000000   0.000000   0.000000   0.000008  -0.000001
    30  H    0.000001   0.000027   0.000067  -0.000001   0.000000  -0.000023
    31  H   -0.000003   0.000016  -0.000019   0.000000   0.000000   0.000001
    32  H    0.010606  -0.004466   0.009214  -0.000058   0.000005   0.000021
              7          8          9         10         11         12
     1  O    0.000000   0.000000   0.000000   0.000000   0.000000   0.000000
     2  C    0.000041  -0.000001   0.000000   0.000000   0.000000   0.000000
     3  C    0.007559  -0.000289  -0.000043   0.000000   0.000015   0.000006
     4  N    0.004519  -0.000133  -0.000006   0.000000  -0.000035  -0.000013
     5  C   -0.027853   0.002166   0.000597   0.000000   0.000035  -0.001554
     6  N    0.176184  -0.040242  -0.005472  -0.000003   0.003242   0.000401
     7  C    4.726286   0.308013  -0.040021   0.003054  -0.046915   0.002954
     8  C    0.308013   5.347812   0.317197  -0.042362  -0.075423   0.004620
     9  C   -0.040021   0.317197   4.909160   0.229727   0.295995  -0.015649
    10  O    0.003054  -0.042362   0.229727   8.264815  -0.036776  -0.001601
    11  C   -0.046915  -0.075423   0.295995  -0.036776   4.980032   0.344975
    12  C    0.002954   0.004620  -0.015649  -0.001601   0.344975   4.862523
    13  O    0.000172  -0.000114   0.003153  -0.000010  -0.040918   0.269134
    14  O    0.276541  -0.042729  -0.037516   0.001120   0.221895  -0.042917
    15  C   -0.025361  -0.004013   0.000410  -0.000001  -0.000134  -0.000013
    16  N    0.002672  -0.008435   0.000164   0.000000  -0.000019   0.000000
    17  C   -0.000122   0.000096  -0.000005   0.000000   0.000000   0.000000
    18  N   -0.000010   0.000017   0.000000   0.000000   0.000000   0.000000
    19  N    0.000021  -0.000010   0.000000   0.000000   0.000000   0.000000
    20  H   -0.001257   0.000203   0.000141  -0.000001  -0.001620   0.000002
    21  H    0.392619  -0.048367   0.004981  -0.000059   0.003361  -0.000229
    22  H   -0.020555   0.344213  -0.031537   0.003768  -0.005058   0.000023
    23  H   -0.020831   0.350694  -0.020970   0.000961   0.005163  -0.000038
    24  H    0.002178  -0.063512   0.370024  -0.037906  -0.051306  -0.007006
    25  H   -0.000073  -0.002920  -0.018794   0.233354   0.005949  -0.000098
    26  H    0.001597  -0.005471  -0.043459   0.004886   0.356561  -0.055253
    27  H   -0.000034   0.000121   0.002476   0.003626  -0.052856   0.347387
    28  H    0.000028  -0.000306  -0.006036   0.000123  -0.033409   0.367658
    29  H   -0.000023  -0.000001  -0.000053   0.000004  -0.004159  -0.032310
    30  H    0.000005  -0.000022   0.000000   0.000000   0.000000   0.000000
    31  H    0.000000   0.000000   0.000000   0.000000   0.000000   0.000000
    32  H   -0.000001   0.000000   0.000000   0.000000   0.000000   0.000000
             13         14         15         16         17         18
     1  O    0.000000   0.000000   0.003798   0.000029   0.002711  -0.000049
     2  C    0.000000   0.000000  -0.043949  -0.019023  -0.022491   0.000149
     3  C    0.000000  -0.000269   0.400357  -0.052516  -0.014265   0.000694
     4  N    0.000000   0.000409  -0.083654   0.006977   0.000591   0.000003
     5  C   -0.000302   0.007111  -0.088049   0.003575   0.000175   0.000002
     6  N   -0.000005  -0.061107   0.293336  -0.068182   0.000525  -0.000110
     7  C    0.000172   0.276541  -0.025361   0.002672  -0.000122  -0.000010
     8  C   -0.000114  -0.042729  -0.004013  -0.008435   0.000096   0.000017
     9  C    0.003153  -0.037516   0.000410   0.000164  -0.000005   0.000000
    10  O   -0.000010   0.001120  -0.000001   0.000000   0.000000   0.000000
    11  C   -0.040918   0.221895  -0.000134  -0.000019   0.000000   0.000000
    12  C    0.269134  -0.042917  -0.000013   0.000000   0.000000   0.000000
    13  O    8.213760   0.001671   0.000000   0.000000   0.000000   0.000000
    14  O    0.001671   8.243833   0.001948   0.000027  -0.000001   0.000000
    15  C    0.000000   0.001948   4.766865   0.330236  -0.060410   0.000636
    16  N    0.000000   0.000027   0.330236   6.966943   0.561078  -0.086495
    17  C    0.000000  -0.000001  -0.060410   0.561078   4.252753   0.334793
    18  N    0.000000   0.000000   0.000636  -0.086495   0.334793   7.004210
    19  N    0.000000   0.000000  -0.012832  -0.068759   0.294837  -0.088247
    20  H    0.001307   0.007573   0.004292  -0.000063   0.000003   0.000000
    21  H    0.000003  -0.040390   0.001768   0.002120   0.000016  -0.000003
    22  H    0.000001   0.001220   0.000100   0.000120   0.000001   0.000000
    23  H    0.000001   0.002489   0.002186   0.013201   0.000181  -0.000104
    24  H    0.000069   0.002371   0.000725   0.000030   0.000002   0.000000
    25  H    0.000001  -0.000106  -0.000001  -0.000001   0.000000   0.000000
    26  H   -0.002452  -0.041417   0.000015   0.000000   0.000000   0.000000
    27  H   -0.035123   0.003708   0.000000   0.000000   0.000000   0.000000
    28  H   -0.040122  -0.002421   0.000018   0.000000   0.000000   0.000000
    29  H    0.235099  -0.000301   0.000000   0.000000   0.000000   0.000000
    30  H    0.000000   0.000000   0.000314   0.005507  -0.014908   0.302900
    31  H    0.000000   0.000000  -0.000056   0.003797  -0.019213   0.305640
    32  H    0.000000   0.000000  -0.000124   0.003959  -0.018881  -0.002896
             19         20         21         22         23         24
     1  O   -0.098719   0.000000   0.000000   0.000000   0.000000   0.000000
     2  C    0.193424  -0.000171   0.000002   0.000000   0.000010   0.000000
     3  C   -0.099126   0.004466  -0.000449   0.000000   0.000394  -0.000115
     4  N    0.003048  -0.037561  -0.000020   0.000002  -0.000048  -0.000013
     5  C   -0.000195   0.379889   0.000720  -0.000063  -0.000094   0.000245
     6  N    0.000381  -0.052971  -0.063331   0.004206  -0.006731   0.003066
     7  C    0.000021  -0.001257   0.392619  -0.020555  -0.020831   0.002178
     8  C   -0.000010   0.000203  -0.048367   0.344213   0.350694  -0.063512
     9  C    0.000000   0.000141   0.004981  -0.031537  -0.020970   0.370024
    10  O    0.000000  -0.000001  -0.000059   0.003768   0.000961  -0.037906
    11  C    0.000000  -0.001620   0.003361  -0.005058   0.005163  -0.051306
    12  C    0.000000   0.000002  -0.000229   0.000023  -0.000038  -0.007006
    13  O    0.000000   0.001307   0.000003   0.000001   0.000001   0.000069
    14  O    0.000000   0.007573  -0.040390   0.001220   0.002489   0.002371
    15  C   -0.012832   0.004292   0.001768   0.000100   0.002186   0.000725
    16  N   -0.068759  -0.000063   0.002120   0.000120   0.013201   0.000030
    17  C    0.294837   0.000003   0.000016   0.000001   0.000181   0.000002
    18  N   -0.088247   0.000000  -0.000003   0.000000  -0.000104   0.000000
    19  N    7.301971   0.000003   0.000000   0.000000   0.000029   0.000000
    20  H    0.000003   0.503219   0.000058  -0.000002  -0.000021   0.000006
    21  H    0.000000   0.000058   0.580662  -0.004740   0.001757  -0.000082
    22  H    0.000000  -0.000002  -0.004740   0.564141  -0.027114   0.006273
    23  H    0.000029  -0.000021   0.001757  -0.027114   0.517013  -0.004816
    24  H    0.000000   0.000006  -0.000082   0.006273  -0.004816   0.631873
    25  H    0.000000   0.000000   0.000003  -0.000296   0.000783  -0.005388
    26  H    0.000000   0.000035   0.000210   0.002398  -0.000180   0.006914
    27  H    0.000000   0.000096   0.000011  -0.000009  -0.000001   0.000299
    28  H    0.000000   0.000836   0.000005   0.000006   0.000001   0.005800
    29  H    0.000000  -0.000034   0.000000  -0.000001   0.000000   0.000025
    30  H    0.005547   0.000000   0.000003   0.000001   0.000111   0.000000
    31  H   -0.002218   0.000000   0.000000   0.000000   0.000002   0.000000
    32  H    0.268282   0.000000   0.000000   0.000000  -0.000001   0.000000
             25         26         27         28         29         30
     1  O    0.000000   0.000000   0.000000   0.000000   0.000000   0.000001
     2  C    0.000000   0.000000   0.000000   0.000000   0.000000   0.000027
     3  C    0.000000  -0.000001   0.000000  -0.000026   0.000000   0.000067
     4  N    0.000000   0.000001   0.000000   0.000061   0.000000  -0.000001
     5  C    0.000001   0.000061   0.000006   0.002942   0.000008   0.000000
     6  N    0.000000  -0.000294  -0.000021   0.000000  -0.000001  -0.000023
     7  C   -0.000073   0.001597  -0.000034   0.000028  -0.000023   0.000005
     8  C   -0.002920  -0.005471   0.000121  -0.000306  -0.000001  -0.000022
     9  C   -0.018794  -0.043459   0.002476  -0.006036  -0.000053   0.000000
    10  O    0.233354   0.004886   0.003626   0.000123   0.000004   0.000000
    11  C    0.005949   0.356561  -0.052856  -0.033409  -0.004159   0.000000
    12  C   -0.000098  -0.055253   0.347387   0.367658  -0.032310   0.000000
    13  O    0.000001  -0.002452  -0.035123  -0.040122   0.235099   0.000000
    14  O   -0.000106  -0.041417   0.003708  -0.002421  -0.000301   0.000000
    15  C   -0.000001   0.000015   0.000000   0.000018   0.000000   0.000314
    16  N   -0.000001   0.000000   0.000000   0.000000   0.000000   0.005507
    17  C    0.000000   0.000000   0.000000   0.000000   0.000000  -0.014908
    18  N    0.000000   0.000000   0.000000   0.000000   0.000000   0.302900
    19  N    0.000000   0.000000   0.000000   0.000000   0.000000   0.005547
    20  H    0.000000   0.000035   0.000096   0.000836  -0.000034   0.000000
    21  H    0.000003   0.000210   0.000011   0.000005   0.000000   0.000003
    22  H   -0.000296   0.002398  -0.000009   0.000006  -0.000001   0.000001
    23  H    0.000783  -0.000180  -0.000001   0.000001   0.000000   0.000111
    24  H   -0.005388   0.006914   0.000299   0.005800   0.000025   0.000000
    25  H    0.386616  -0.000145  -0.000070   0.000004   0.000000   0.000000
    26  H   -0.000145   0.625211  -0.000512   0.005671   0.005862   0.000000
    27  H   -0.000070  -0.000512   0.637650  -0.038435  -0.005637   0.000000
    28  H    0.000004   0.005671  -0.038435   0.574618   0.007675   0.000000
    29  H    0.000000   0.005862  -0.005637   0.007675   0.403333   0.000000
    30  H    0.000000   0.000000   0.000000   0.000000   0.000000   0.375761
    31  H    0.000000   0.000000   0.000000   0.000000   0.000000  -0.023283
    32  H    0.000000   0.000000   0.000000   0.000000   0.000000  -0.000093
             31         32
     1  O   -0.000003   0.010606
     2  C    0.000016  -0.004466
     3  C   -0.000019   0.009214
     4  N    0.000000  -0.000058
     5  C    0.000000   0.000005
     6  N    0.000001   0.000021
     7  C    0.000000  -0.000001
     8  C    0.000000   0.000000
     9  C    0.000000   0.000000
    10  O    0.000000   0.000000
    11  C    0.000000   0.000000
    12  C    0.000000   0.000000
    13  O    0.000000   0.000000
    14  O    0.000000   0.000000
    15  C   -0.000056  -0.000124
    16  N    0.003797   0.003959
    17  C   -0.019213  -0.018881
    18  N    0.305640  -0.002896
    19  N   -0.002218   0.268282
    20  H    0.000000   0.000000
    21  H    0.000000   0.000000
    22  H    0.000000   0.000000
    23  H    0.000002  -0.000001
    24  H    0.000000   0.000000
    25  H    0.000000   0.000000
    26  H    0.000000   0.000000
    27  H    0.000000   0.000000
    28  H    0.000000   0.000000
    29  H    0.000000   0.000000
    30  H   -0.023283  -0.000093
    31  H    0.400330   0.001629
    32  H    0.001629   0.394248
 Mulliken atomic charges:
              1
     1  O   -0.502641
     2  C    0.577882
     3  C    0.123957
     4  N   -0.484048
     5  C    0.194868
     6  N   -0.529779
     7  C    0.278615
     8  C   -0.340800
     9  C    0.085535
    10  O   -0.626718
    11  C    0.131405
    12  C   -0.043000
    13  O   -0.605322
    14  O   -0.502742
    15  C    0.511593
    16  N   -0.596940
    17  C    0.702532
    18  N   -0.771128
    19  N   -0.697434
    20  H    0.191571
    21  H    0.169368
    22  H    0.162902
    23  H    0.185976
    24  H    0.140244
    25  H    0.401178
    26  H    0.139762
    27  H    0.137317
    28  H    0.155310
    29  H    0.390514
    30  H    0.348087
    31  H    0.333378
    32  H    0.338555
 Sum of Mulliken atomic charges =   0.00000
 Mulliken charges with hydrogens summed into heavy atoms:
              1
     1  O   -0.502641
     2  C    0.577882
     3  C    0.123957
     4  N   -0.484048
     5  C    0.386439
     6  N   -0.529779
     7  C    0.447983
     8  C    0.008078
     9  C    0.225778
    10  O   -0.225540
    11  C    0.271167
    12  C    0.249628
    13  O   -0.214808
    14  O   -0.502742
    15  C    0.511593
    16  N   -0.596940
    17  C    0.702532
    18  N   -0.089663
    19  N   -0.358879
 Sum of Mulliken charges with hydrogens summed into heavy atoms =   0.00000
 Electronic spatial extent (au):  <R**2>=           5710.9014
 Charge=              0.0000 electrons
 Dipole moment (field-independent basis, Debye):
    X=              0.3131    Y=              8.6188    Z=             -0.6988  Tot=              8.6528
 Quadrupole moment (field-independent basis, Debye-Ang):
   XX=            -94.0343   YY=           -118.9080   ZZ=           -105.4206
   XY=            -18.9569   XZ=              8.5434   YZ=              1.9930
 Traceless Quadrupole moment (field-independent basis, Debye-Ang):
   XX=             12.0867   YY=            -12.7871   ZZ=              0.7004
   XY=            -18.9569   XZ=              8.5434   YZ=              1.9930
 Octapole moment (field-independent basis, Debye-Ang**2):
  XXX=            -27.6474  YYY=             80.8254  ZZZ=              9.1462  XYY=              5.4518
  XXY=            105.8429  XXZ=            -37.5025  XZZ=             16.2272  YZZ=             15.5797
  YYZ=             -9.7983  XYZ=              2.0442
 Hexadecapole moment (field-independent basis, Debye-Ang**3):
 XXXX=          -4368.7935 YYYY=          -1524.0551 ZZZZ=           -359.8831 XXXY=           -472.5787
 XXXZ=             15.8326 YYYX=           -118.9547 YYYZ=             27.6207 ZZZX=             22.1122
 ZZZY=             30.0709 XXYY=          -1267.7476 XXZZ=           -930.1033 YYZZ=           -285.9015
 XXYZ=             -0.8791 YYXZ=             92.0896 ZZXY=             10.6031
 N-N= 1.492800747729D+03 E-N=-5.234781558870D+03  KE= 9.549789481592D+02
 1|1|UNPC-DESKTOP-N7IAV1E|FOpt|RB3LYP|6-31G(d)|C10H13N5O4|KAWAS|13-Mar-
 2019|0||#opt b3lyp/6-31g(d) Geom=AllCheck Guess=Read||Conformer_1 at -
 23.371629409415668 MMFF energy generated from O=C1C(N=CN2[C@H]3C[C@H](
 O)[C@@H](CO)O3)=C2N=C(N)N1||0,1|O,4.075036386,2.6173301312,-1.38666176
 23|C,3.4398866578,1.6742471888,-0.9503124354|C,2.0792049779,1.25604176
 04,-1.1711533441|N,1.0993904275,1.805308437,-1.9707578926|C,0.05927748
 24,1.0293260149,-1.7944062623|N,0.2907165287,-0.0045374431,-0.89516810
 2|C,-0.6319791544,-1.1083859365,-0.5500424828|C,-0.8547666456,-1.23926
 214,0.95906193|C,-2.0327801164,-0.2833772993,1.2002626248|O,-2.8759543
 102,-0.6266589498,2.2889539744|C,-2.8364020018,-0.4250052818,-0.101994
 1298|C,-3.5689000271,0.8454278865,-0.5157194011|O,-4.3045544145,0.7154
 857634,-1.7188393354|O,-1.8955022643,-0.8360197115,-1.1152103852|C,1.6
 024458138,0.1266615215,-0.5041540975|N,2.2673488776,-0.7069683024,0.34
 51465755|C,3.5090143904,-0.3375605125,0.5504642371|N,4.2915103703,-1.0
 454022159,1.4418438408|N,4.0788598767,0.7619266914,-0.0354356071|H,-0.
 8981378998,1.1318125192,-2.2827162061|H,-0.2358698095,-2.0221137265,-1
 .0039129486|H,-1.1875374116,-2.2585657935,1.185228494|H,0.0449508401,-
 1.0235789997,1.5376462472|H,-1.6696284919,0.7505570196,1.3042952164|H,
 -2.4214189842,-0.3846296051,3.1100809067|H,-3.5630882199,-1.240332039,
 0.0364188258|H,-4.2069123132,1.1522908613,0.3298214546|H,-2.8431620139
 ,1.6450315468,-0.695592091|H,-4.988642711,0.0415642164,-1.5808645413|H
 ,3.8768430183,-1.9339357914,1.6948418232|H,5.2784705158,-1.1147394051,
 1.2257166538|H,5.022480626,1.0377615947,0.2129582202||Version=EM64W-G0
 9RevC.01|State=1-A|HF=-963.5342132|RMSD=3.743e-009|RMSF=6.902e-006|Dip
 ole=0.1840671,-2.3785058,2.4285549|Quadrupole=12.1230547,-7.9977006,-4
 .1253541,-11.8631374,5.9012701,6.1113775|PG=C01 [X(C10H13N5O4)]||@


 THESE ARE THE TIMES THAT TRY MENS SOULS.
 THE SUMMER SOLDIER AND THE SUNSHINE PATRIOT WILL IN THIS CRISIS,
 SHRINK FROM THE SERVICE OF HIS COUNTRY.  BUT HE THAT STANDS NOW,
 DESERVES THE LOVE AND THANKS OF MAN AND WOMAN.
 TYRANNY, LIKE HELL, IS NOT EASILY CONQUERED,
 YET WE HAVE THIS CONSOLATION WITH US,
 THAT THE HARDER THE CONFLICT, THE MORE GLORIOUS THE TRIUMPH.
 WHAT WE OBTAIN TOO CHEAP, WE ESTEEM TOO LIGHTLY, 
 'TIS DEARNESS ONLY THAT GIVES EVERYTHING ITS VALUE.

                                              -- TOM PAINE
 Job cpu time:  0 days  3 hours 19 minutes 10.0 seconds.
 File lengths (MBytes):  RWF=     73 Int=      0 D2E=      0 Chk=      8 Scr=      1
 Normal termination of Gaussian 09 at Wed Mar 13 22:24:21 2019.
